
Inactive Modules:
  1) openblas/0.2.20     2) openmpi3

/var/spool/slurm/d/job5878681/slurm_script: line 27: /share/software/scisoft/ADF/adf2018.105/bin/openmpi/bin/mpiexec: No such file or directory
----- ADF execution script -----
This job is running on host compute-8-1.
Linux operating system at Tue Nov 3 09:36:33 EST 2020.
----- ADF execution begins -----
----- ********************** -----


 *******************************************************************************
 *                                                                             *
 *  -------------------------------------                                      *
 *   Amsterdam Density Functional  (ADF)         2018                          *
 *  -------------------------------------                                      *
 *                                               r70630 2018-11-24             *
 *                                                                             *
 *                                                                             *
 *                            =====================                            *
 *                            |                   |                            *
 *                            |     D I R A C     |                            *
 *                            |                   |                            *
 *                            =====================                            *
 *                                                                             *
 *                                                                             *
 *   Online information and documentation:  https://www.scm.com/support/       *
 *   E-mail:  support@scm.com   info@scm.com                                   *
 *                                                                             *
 *   Scientific publications using ADF results must be properly referenced     *
 *   See the User Manuals (or the web site) for recommended citations          *
 *   The terms and conditions of the End User License Agreement apply to       *
 *   the use of ADF, https://www.scm.com/license-terms/                        *
 *                                                                             *
 **********************  x86_64_linux_intel / intelmpi  ************************
 
 Licensed to: Dr. Rebecca Gieseking / Brandeis University, Chemistry / Waltham / Massachusetts / USA
 SCM User ID: u20545
  
 DIRAC 2018  RunTime: Nov03-2020 09:36:33  Nodes: 1  Procs: 1

 Temporary files are created in /local_scratch/alvadillon/22705/kid_0.929957240

1
 SILVER ATOM all electron RELATIVISTIC, Point Nuc, A and c fr
 N J RN H ZN XION ANUC CLIGHT
 5000   15100.00000000197.36710137 47.00000000  0.00000000  106.905093  0.1370360E+03
  PH   PHI     EPS        DEL        DELRVR
  0.30  0.30     2500.00  0.00001000  0.00001000
 IDIRC  NC1  NDEBU NPRIN  IPUN IRCOR IWCOR
   1   300     0     0     0     0     0
   XALPHA      XLATTER      RNUC
  0.70000000  0.00000000  0.00000000 Point Charge
   XN   XL   XJ      XE          XZ      XDELL
  1.0  0.0  0.5   -1500.000       2.000     0.00000
  2.0  0.0  0.5    -325.000       2.000     0.00000
  2.0  1.0  0.5    -325.000       2.000     0.00000
  2.0  1.0  1.5    -325.000       4.000     0.00000
  3.0  0.0  0.5     -70.000       2.000     0.00000
  3.0  1.0  0.5     -70.000       2.000     0.00000
  3.0  1.0  1.5     -70.000       4.000     0.00000
  3.0  2.0  1.5     -60.000       4.000     0.00000
  3.0  2.0  2.5     -60.000       6.000     0.00000
  4.0  0.0  0.5     -10.000       2.000     0.00000
  4.0  1.0  0.5     -10.000       2.000     0.00000
  4.0  1.0  1.5     -10.000       4.000     0.00000
  4.0  2.0  1.5      -1.000       4.000     0.00000
  4.0  2.0  2.5      -1.000       6.000     0.00000
  5.0  0.0  0.5      -0.500       1.000     0.00000
 ICORP=  0  NPCL=  0  DEMP=0.00  PEPS=0.000000
 R(1)=  0.1000000E-08 D=  0.1005080E+01 RNUC=  0.0000000E+00
 converged at cycle   37  DENSITY AVERAGING    0.1536
  MAXIMUM ERROR IN R.V(R) IS   0.73266208E-05
 Q,EY,EV,EZ,ESUM,ETOT,RHO  0.470000E+02 -0.196167E+03 -0.876390E+04 -0.128962E+05 -0.319969E+04 -0.531488E+04  0.734901E-11


 DIRAC CALCULATION
1                    SILVER ATOM all electron RELATIVISTIC, Point Nuc, A and c from libtc


 EXCHANGE COEFFICIENT=  0.7000000           TAIL CORRECTION=  0.           NUCLEAR RADIUS=  0.000E+00
0                       ORBITAL    N    L    J     ELECTRONS     EIGENVALUE                DELTA OF EIGENV.

                          1S1/2  1.0  0.0  0.5     2.000       -0.9298445E+03                 0.2273092E-04
                          2S1/2  2.0  0.0  0.5     2.000       -0.1369628E+03                 0.3639498E-04
                          2P1/2  2.0  1.0  0.5     2.000       -0.1273849E+03                 0.3693015E-04
                          2P3/2  2.0  1.0  1.5     4.000       -0.1209397E+03                 0.3702741E-04
                          3S1/2  3.0  0.0  0.5     2.000       -0.2508734E+02                 0.1716513E-04
                          3P1/2  3.0  1.0  0.5     2.000       -0.2126622E+02                 0.1799299E-04
                          3P3/2  3.0  1.0  1.5     4.000       -0.2012758E+02                 0.1718269E-04
                          3D3/2  3.0  2.0  1.5     4.000       -0.1333155E+02                 0.2053383E-04
                          3D5/2  3.0  2.0  2.5     6.000       -0.1310170E+02                 0.2025648E-04
                          4S1/2  4.0  0.0  0.5     2.000       -0.3467319E+01                 0.6825767E-06
                          4P1/2  4.0  1.0  0.5     2.000       -0.2259901E+01                 0.4193830E-06
                          4P3/2  4.0  1.0  1.5     4.000       -0.2069785E+01                 0.2705207E-06
                          4D3/2  4.0  2.0  1.5     4.000       -0.2640772E+00                 0.3034642E-06
                          4D5/2  4.0  2.0  2.5     6.000       -0.2433402E+00                 0.3285318E-06
                          5S1/2  5.0  0.0  0.5     1.000       -0.1450750E+00                 0.2931480E-06


                                        NUCLEAR CHARGE=   47.000000
                            INTEGRAL OF CHARGE DENSITY=   47.000000
                           SUM OF THE ORBITAL ENERGIES=  -3199.6921
                                          TOTAL ENERGY=  -5314.8812
                                        KINETIC ENERGY=   5564.2055
                             NUCLEAR ATTRACTION ENERGY= -12896.1922
                             ELECTRON REPULSION ENERGY=   2164.2310
                                       EXCHANGE ENERGY=   -147.1255

 *******************************************************************************

                             D I R A C   E X I T
 NORMAL TERMINATION



 =================
 Timing Statistics
 =================
  
 Total Used :                     CPU=        0.32      System=        0.02     Elapsed=        0.38

 Calls  Section                     ( Mean, Percentage )
 ---------------------------------------------------------------------------------------------------
     2  ><      ................      0.00    0.00             0.00    0.04             0.00    0.00
     1  EXIT PROCEDURE .........      0.32  100.00             0.02   99.96             0.38  100.00


 Currently Open Files (EXIT00)
 ====================

 Unit    Access Format  Status   Type       Ident (file)
 -------------------------------------------------------
   3      SEQ    FORM   TRANSP  NORMAL      LOGFILE
                                          ( logfile )


 Buffered I/O statistics
 =======================
 Memory available:                     67108864
 Number of records fitting in memory:     16131
 Input : 100.0% of                            0  *4k bytes
 Output: 100.0% of                            0  *4k bytes
 Records from serial files evicted:           0
                    others evicted:           0
 Hash table lookups:          0 with          0 conflicts (100.00%)
NORMAL TERMINATION
 
Create Ag   file=DZ-Ag
XC
  GGA PW91
End
relativistic ZORA
Corepotentials t12.rel
End

 *******************************************************************************
 *                                                                             *
 *  -------------------------------------                                      *
 *   Amsterdam Density Functional  (ADF)         2018                          *
 *  -------------------------------------                                      *
 *                                               r70630 2018-11-24             *
 *                                                                             *
 *                                                                             *
 *                              =================                              *
 *                              |               |                              *
 *                              |     A D F     |                              *
 *                              |               |                              *
 *                              =================                              *
 *                                                                             *
 *                                                                             *
 *   Online information and documentation:  https://www.scm.com/support/       *
 *   E-mail:  support@scm.com   info@scm.com                                   *
 *                                                                             *
 *   Scientific publications using ADF results must be properly referenced     *
 *   See the User Manuals (or the web site) for recommended citations          *
 *   The terms and conditions of the End User License Agreement apply to       *
 *   the use of ADF, https://www.scm.com/license-terms/                        *
 *                                                                             *
 **********************  x86_64_linux_intel / intelmpi  ************************
 
 Licensed to: Dr. Rebecca Gieseking / Brandeis University, Chemistry / Waltham / Massachusetts / USA
 SCM User ID: u20545
  
 ADF 2018  RunTime: Nov03-2020 09:36:36  Nodes: 1  Procs: 1

 Temporary files are created in /local_scratch/alvadillon/22705/kid_0.1723394503

 Silver (DZ, all electron)



 ===========================
 A T T A C H E D   F I L E S
 ===========================
  
 CREATE - Data File:    DZ-Ag
                        Silver (DZ, all electron)
 Core Potentials:
         file : t12.rel



 ===============================
 M O D E L   P A R A M E T E R S
 ===============================
  
 DENSITY FUNCTIONAL POTENTIAL (scf)
    LDA:                               VWN                                      
    Gradient Corrections:              PW91x PW91c                             == Not Default ==

 SPIN  (restricted / unrestr.)
    Molecule:                          Restricted                               

 OTHER ASPECTS
    Relativistic Corrections:          scalar (ZORA,MAPA)                      == Not Default ==

    Nuclear Charge Density Model:      Point Charge Nuclei                      
    Core Treatment:                    Frozen Orbital(s)                        

    Hyperfine or Zeeman Interaction:   ---                                      



 =====================================
 S Y M M E T R Y ,   E L E C T R O N S
 =====================================
  
 Symmetry: ATOM

 Irreducible Representations, including subspecies
 -------------------------------------------------
 S
 P:x  P:y  P:z
 D:z2  D:x2-y2  D:xy  D:xz  D:yz
 F:z3  F:z  F:xyz  F:z2x  F:z2y  F:x  F:y


 Configuration of Valence Electrons
 ==================================

          Occupation Numbers
          -------------------------------------------------
 S        4*2 1
 P        3*6
 D        2*10
 F        0
          -------------------------------------------------

 Total:   47

 Net Charge: 0 (Nuclei minus Electrons)

 Preset values for MO occupations will be applied through SCF cycle no. 1000000
 Thereafter, the program will assign electrons to MOs that are spatially
 similar to the occupied MOs in a "reference" cycle ("KeepOrbitals").
 The reference cycle is always the PREVIOUS cycle: it will evolve with
 the SCF procedure.



 ================================
 (Slater-type)  F U N C T I O N S  ***  (Basis and Fit)  ***
 ================================
  

 Atom Type    1  (Ag)
 ==============

 Valence Basis Sets:  23
 -----------------------
   1 S  310.000000
   1 S   78.300000
   1 S   47.000000
   2 S   54.150000
   2 S   20.100000
   3 S   10.450000
   3 S    6.850000
   4 S    6.350000
   4 S    4.050000
   5 S    2.150000
   5 S    1.140000
   2 P   29.850000
   2 P   19.250000
   3 P   11.600000
   3 P    8.400000
   4 P    5.650000
   4 P    3.450000
   3 D   18.300000
   3 D   10.950000
   3 D    7.250000
   4 D    4.100000
   4 D    1.800000
   5 P    1.550000


 BAS: List of all Elementary Cartesian Basis Functions
 =====================================================

 The numbering in the list below (to the right of the function characteristics) is referred
 to in print-outs of MO eigenvectors and Mulliken populations in the BAS representation
 (as contrasted to the SFO representation).

 Notes:
 1. The functions are characterized by a polynomial prefactor (powers of x,y,z and r) and
    an exponential decay factor alpha.
 2. Since the basis sets are specific for an atom TYPE, the individual functions occur on
    all atoms of that type.
 3. The word 'Core' in the left margin signals that it is a Core Function (CF) : not a
    degree of freedom in the valence set, but only used to ensure orthogonalization of
    the other valence basis functions on the frozen Core Orbitals.


 (power of) X  Y  Z  R     Alpha  on Atom
            ==========     =====     ==========

 Ag                                   1
                                  ---------------------------------------------------------------------------
            0  0  0  0   310.000      1
            0  0  0  0    78.300      2
            0  0  0  0    47.000      3
            0  0  0  1    54.150      4
            0  0  0  1    20.100      5
            0  0  0  2    10.450      6
            0  0  0  2     6.850      7
            0  0  0  3     6.350      8
            0  0  0  3     4.050      9
            0  0  0  4     2.150     10
            0  0  0  4     1.140     11
            1  0  0  0    29.850     12
            0  1  0  0    29.850     13
            0  0  1  0    29.850     14
            1  0  0  0    19.250     15
            0  1  0  0    19.250     16
            0  0  1  0    19.250     17
            1  0  0  1    11.600     18
            0  1  0  1    11.600     19
            0  0  1  1    11.600     20
            1  0  0  1     8.400     21
            0  1  0  1     8.400     22
            0  0  1  1     8.400     23
            1  0  0  2     5.650     24
            0  1  0  2     5.650     25
            0  0  1  2     5.650     26
            1  0  0  2     3.450     27
            0  1  0  2     3.450     28
            0  0  1  2     3.450     29
            2  0  0  0    18.300     30
            1  1  0  0    18.300     31
            1  0  1  0    18.300     32
            0  2  0  0    18.300     33
            0  1  1  0    18.300     34
            0  0  2  0    18.300     35
            2  0  0  0    10.950     36
            1  1  0  0    10.950     37
            1  0  1  0    10.950     38
            0  2  0  0    10.950     39
            0  1  1  0    10.950     40
            0  0  2  0    10.950     41
            2  0  0  0     7.250     42
            1  1  0  0     7.250     43
            1  0  1  0     7.250     44
            0  2  0  0     7.250     45
            0  1  1  0     7.250     46
            0  0  2  0     7.250     47
            2  0  0  1     4.100     48
            1  1  0  1     4.100     49
            1  0  1  1     4.100     50
            0  2  0  1     4.100     51
            0  1  1  1     4.100     52
            0  0  2  1     4.100     53
            2  0  0  1     1.800     54
            1  1  0  1     1.800     55
            1  0  1  1     1.800     56
            0  2  0  1     1.800     57
            0  1  1  1     1.800     58
            0  0  2  1     1.800     59
            1  0  0  3     1.550     60
            0  1  0  3     1.550     61
            0  0  1  3     1.550     62

 Total number of charge fitting functions (nprimf)       237
 Total number of Cartesian basis functions (naos)         62
 Total number of Cartesian core functions  (ncos)          0



 BAS: List of all Elementary Cartesian Basis Functions
 =====================================================

 The numbering in the list below (to the right of the function characteristics) is referred
 to in print-outs of MO eigenvectors and Mulliken populations in the BAS representation
 (as contrasted to the SFO representation).

 Notes:
 1. The functions are characterized by a polynomial prefactor (powers of x,y,z and r) and
    an exponential decay factor alpha.
 2. Since the basis sets are specific for an atom TYPE, the individual functions occur on
    all atoms of that type.
 3. The word 'Core' in the left margin signals that it is a Core Function (CF) : not a
    degree of freedom in the valence set, but only used to ensure orthogonalization of
    the other valence basis functions on the frozen Core Orbitals.


 (power of) X  Y  Z  R     Alpha  on Atom
            ==========     =====     ==========

 Ag                                   1
                                  ---------------------------------------------------------------------------
            0  0  0  0   310.000      1
            0  0  0  0    78.300      2
            0  0  0  0    47.000      3
            0  0  0  1    54.150      4
            0  0  0  1    20.100      5
            0  0  0  2    10.450      6
            0  0  0  2     6.850      7
            0  0  0  3     6.350      8
            0  0  0  3     4.050      9
            0  0  0  4     2.150     10
            0  0  0  4     1.140     11
            1  0  0  0    29.850     12
            0  1  0  0    29.850     13
            0  0  1  0    29.850     14
            1  0  0  0    19.250     15
            0  1  0  0    19.250     16
            0  0  1  0    19.250     17
            1  0  0  1    11.600     18
            0  1  0  1    11.600     19
            0  0  1  1    11.600     20
            1  0  0  1     8.400     21
            0  1  0  1     8.400     22
            0  0  1  1     8.400     23
            1  0  0  2     5.650     24
            0  1  0  2     5.650     25
            0  0  1  2     5.650     26
            1  0  0  2     3.450     27
            0  1  0  2     3.450     28
            0  0  1  2     3.450     29
            2  0  0  0    18.300     30
            1  1  0  0    18.300     31
            1  0  1  0    18.300     32
            0  2  0  0    18.300     33
            0  1  1  0    18.300     34
            0  0  2  0    18.300     35
            2  0  0  0    10.950     36
            1  1  0  0    10.950     37
            1  0  1  0    10.950     38
            0  2  0  0    10.950     39
            0  1  1  0    10.950     40
            0  0  2  0    10.950     41
            2  0  0  0     7.250     42
            1  1  0  0     7.250     43
            1  0  1  0     7.250     44
            0  2  0  0     7.250     45
            0  1  1  0     7.250     46
            0  0  2  0     7.250     47
            2  0  0  1     4.100     48
            1  1  0  1     4.100     49
            1  0  1  1     4.100     50
            0  2  0  1     4.100     51
            0  1  1  1     4.100     52
            0  0  2  1     4.100     53
            2  0  0  1     1.800     54
            1  1  0  1     1.800     55
            1  0  1  1     1.800     56
            0  2  0  1     1.800     57
            0  1  1  1     1.800     58
            0  0  2  1     1.800     59
            1  0  0  3     1.550     60
            0  1  0  3     1.550     61
            0  0  1  3     1.550     62
1
 ***************************************************************************************************



                                              ***********************
                                              *  T E C H N I C A L  *
                                              ***********************
  



 =============================================================
 P A R A L L E L I Z A T I O N  and  V E C T O R I Z A T I O N
 =============================================================
  
 Nr of parallel processes:                                1
 Maximum vector length in NumInt loops:                 128

 IO buffersize (Mb):                                     64.000000



 =====================
 S C F   U P D A T E S
 =====================
  
 Max. nr. of cycles:                               300
 Convergence criterion:                              0.0000000100
   secondary criterion:                              0.0000000100

 Mix parameter (when DIIS does not apply):           0.2000000000
 Special mix parameter for the first cycle:          1.0000000000
 Mixed ADIIS+DIIS will be used
    Max number of expansion vectors:                10
    Pure ADIIS when Max([F,P]) is above              0.1000000000
    Pure DIIS when Max([F,P]) is below               0.0010000000
 Automatic ElectronSmearing (in case of problematic SCF convergence) disabled



 =================
 P R E C I S I O N  ***  (General: NumInt, NeglectFunctionTails, ...)  ***
 =================
  

 NumInt:           Target precision:                12.0000000000
 -------           Initial precision:               10.0000000000
                   Min. precision (optimization):   10.0000000000

 Neglect Functions:          Basis functions:        0.1000000000E-13
 ------------------          Fit functions:          0.1000000000E-13



 ===========================
 L I N E A R   S C A L I N G
 ===========================
  

 Cut-off radii density fit:                        0.1000000000E-97
 Overlap cut-off criterion AO matrix elements:     0.1000000000E-97
 Cut-offs for Coulomb potential and fitted density:0.1000000000E-97
 Cut-off criterion for Coulomb multipole terms:    0.1000000000E-97
 Progressive Convergence parameter:                 0.000000000    
1
 ***************************************************************************************************



                                            ***************************
                                            *  C O M P U T A T I O N  *
                                            ***************************
  

 Number of elements of the density matrix on this node (used, total):      1953      1953



 ===========================================
 Numerical Integration : Fuzzy Cells (Becke)
 ===========================================
  
 Becke grid quality: VERYGOOD       
  
 Lebedev angular grid order:             min:  13 max:  41
 Nr. of radial points:                   min: 179 max: 179

 Total nr. of points:        179
 Nr. of blocks:                2
 Block length:                90
 Nr. of dummy points:          1


 Test of Precision of the Numerical Integration Grid
 ===================================================

 Integral of the Total Core Density:                   0.00000000000000



 ========================
 Density Fitting (zlmFit)
 ========================
  
 ZlmFit Fit Quality: VERYGOOD       
  
 Max L-expansion:                        min:   0 max:   0
 Nr. of radial interpolation points:     min: 400 max: 400



 =====
 S C F  ***  ScaSCF  ***
 =====
  

 CYCLE    1
 SCF Error: norm([F,P])=      0.000000000000, max([F,P])=      0.000000000000
 orbitals (Q,E):
 ---------------
 S :1...11           ( 2.00 -1132.4771)  ( 2.00  -285.1632)  ( 2.00  -124.9697)  ( 2.00   -69.3358)
                     ( 1.00   -43.5723)  ( 0.00   -28.6089)  ( 0.00   -16.9613)  ( 0.00    -9.0016)
                     ( 0.00   400.0344)  ( 0.00  3841.3093)  ( 0.00 20022.8151)
 P :1...7            ( 6.00  -279.4963)  ( 6.00  -123.6657)  ( 6.00   -69.1171)  ( 0.00   -42.9866)
                     ( 0.00   -26.7531)  ( 0.00   -13.0494)  ( 0.00    97.1246)
 D :1...5            (10.00  -122.8307)  (10.00   -68.1198)  ( 0.00   -39.7115)  ( 0.00   -25.2168)
                     ( 0.00   -16.5312)

 CYCLE    2
  SDIIS (wt  0.000):  1.0000  0.0000
 A-DIIS (wt  1.000):  0.0000  1.0000
  DIIS coefficients:  0.0000  1.0000
 SCF Error: norm([F,P])=    262.477058304916, max([F,P])=     54.424663433406
 orbitals (Q,E):
 ---------------
 S :1...6            ( 2.00  -865.3650)  ( 2.00   -88.3994)  ( 2.00    -3.0223)  ( 2.00     0.0413)
                     ( 1.00     0.3672)  ( 0.00     2.3047)
 P :1...4            ( 6.00   -71.5558)  ( 6.00     0.0723)  ( 6.00     0.3578)  ( 0.00     2.3814)
 D :1...3            (10.00     0.7778)  (10.00     3.7363)  ( 0.00    10.6400)

 CYCLE    3
  SDIIS (wt  0.000):  0.1529  0.8471
 A-DIIS (wt  1.000):  0.4496  0.5504
  DIIS coefficients:  0.4496  0.5504
 SCF Error: norm([F,P])=    106.747494128457, max([F,P])=     29.867833793720
 orbitals (Q,E):
 ---------------
 S :1...6            ( 2.00  -931.6969)  ( 2.00  -142.1656)  ( 2.00   -31.8619)  ( 2.00    -7.8744)
                     ( 1.00    -1.6944)  ( 0.00    -0.1525)
 P :1...4            ( 6.00  -127.4939)  ( 6.00   -27.2263)  ( 6.00    -6.3333)  ( 0.00    -1.1483)
 D :1...3            (10.00   -20.1240)  (10.00    -3.9391)  ( 0.00    -0.3806)

 CYCLE    4
  SDIIS (wt  0.000):  0.0057  0.0176  0.9767
 A-DIIS (wt  1.000):  0.0000  0.0000  1.0000
  DIIS coefficients:  0.0000  0.0000  1.0000
 SCF Error: norm([F,P])=     16.010816723053, max([F,P])=      2.892892533276
 orbitals (Q,E):
 ---------------
 S :1...6            ( 2.00  -923.3299)  ( 2.00  -130.5387)  ( 2.00   -20.1824)  ( 2.00    -1.1438)
                     ( 1.00     0.0322)  ( 0.00     0.5011)
 P :1...4            ( 6.00  -116.3267)  ( 6.00   -15.5664)  ( 6.00    -0.1973)  ( 0.00     0.2932)
 D :1...3            (10.00    -8.1314)  (10.00     0.5393)  ( 0.00     2.2769)

 CYCLE    5
  SDIIS (wt  0.000):  0.0038 -0.0143  0.5407  0.4699
 A-DIIS (wt  1.000):  0.0000  0.0000  0.6645  0.3355
  DIIS coefficients:  0.0000  0.0000  0.6645  0.3355
 SCF Error: norm([F,P])=     17.973940307358, max([F,P])=      4.549142346868
 orbitals (Q,E):
 ---------------
 S :1...6            ( 2.00  -929.0271)  ( 2.00  -135.9821)  ( 2.00   -24.4317)  ( 2.00    -3.4211)
                     ( 1.00    -0.2109)  ( 0.00     0.1209)
 P :1...4            ( 6.00  -121.8502)  ( 6.00   -19.8208)  ( 6.00    -2.1324)  ( 0.00    -0.0170)
 D :1...3            (10.00   -12.4893)  (10.00    -0.3328)  ( 0.00     0.6803)

 CYCLE    6
  SDIIS (wt  0.000):  0.0010  0.0005  0.1115 -0.0846  0.9716
 A-DIIS (wt  1.000):  0.0000  0.0000  0.0000  0.0000  1.0000
  DIIS coefficients:  0.0000  0.0000  0.0000  0.0000  1.0000
 SCF Error: norm([F,P])=      3.056431444007, max([F,P])=      0.707390000645
 orbitals (Q,E):
 ---------------
 S :1...6            ( 2.00  -931.0997)  ( 2.00  -138.0993)  ( 2.00   -25.9303)  ( 2.00    -3.9059)
                     ( 1.00    -0.2136)  ( 0.00     0.0911)
 P :1...4            ( 6.00  -123.9873)  ( 6.00   -21.3229)  ( 6.00    -2.5356)  ( 0.00    -0.0250)
 D :1...3            (10.00   -14.0681)  (10.00    -0.5469)  ( 0.00     0.5658)

 CYCLE    7
  SDIIS (wt  0.000): -0.0003  0.0002  0.0104 -0.0069  0.5714  0.4251
 A-DIIS (wt  1.000):  0.0000  0.0000  0.0000  0.0000  0.6616  0.3384
  DIIS coefficients:  0.0000  0.0000  0.0000  0.0000  0.6616  0.3384
 SCF Error: norm([F,P])=      3.632394149511, max([F,P])=      0.988319637508
 orbitals (Q,E):
 ---------------
 S :1...6            ( 2.00  -930.0408)  ( 2.00  -137.1250)  ( 2.00   -25.2220)  ( 2.00    -3.5225)
                     ( 1.00    -0.1626)  ( 0.00     0.1229)
 P :1...4            ( 6.00  -122.9920)  ( 6.00   -20.6116)  ( 6.00    -2.1838)  ( 0.00     0.0060)
 D :1...3            (10.00   -13.3306)  (10.00    -0.2896)  ( 0.00     0.6843)

 CYCLE    8
  SDIIS (wt  0.000): -0.0001  0.0000  0.0101 -0.0032  0.1746 -0.0392  0.8578
 A-DIIS (wt  1.000):  0.0000  0.0000  0.0000  0.0000  0.0000  0.0000  1.0000
  DIIS coefficients:  0.0000  0.0000  0.0000  0.0000  0.0000  0.0000  1.0000
 SCF Error: norm([F,P])=      0.620322653306, max([F,P])=      0.134284395815
 orbitals (Q,E):
 ---------------
 S :1...6            ( 2.00  -929.5580)  ( 2.00  -136.7014)  ( 2.00   -24.9707)  ( 2.00    -3.4419)
                     ( 1.00    -0.1677)  ( 0.00     0.1231)
 P :1...4            ( 6.00  -122.5551)  ( 6.00   -20.3583)  ( 6.00    -2.1150)  ( 0.00    -0.0002)
 D :1...3            (10.00   -13.0606)  (10.00    -0.2539)  ( 0.00     0.7020)

 CYCLE    9
  SDIIS (wt  0.000): -0.0001  0.0001 -0.0057 -0.0033 -0.0119  0.1896 -0.0896  0.9209
 A-DIIS (wt  1.000):  0.0000  0.0000  0.0000  0.0000  0.0000  0.0000  0.7078  0.2922
  DIIS coefficients:  0.0000  0.0000  0.0000  0.0000  0.0000  0.0000  0.7078  0.2922
 SCF Error: norm([F,P])=      0.708749479233, max([F,P])=      0.204524464442
 orbitals (Q,E):
 ---------------
 S :1...6            ( 2.00  -929.7374)  ( 2.00  -136.8647)  ( 2.00   -25.0879)  ( 2.00    -3.5062)
                     ( 1.00    -0.1761)  ( 0.00     0.1169)
 P :1...4            ( 6.00  -122.7222)  ( 6.00   -20.4760)  ( 6.00    -2.1737)  ( 0.00    -0.0057)
 D :1...3            (10.00   -13.1826)  (10.00    -0.2942)  ( 0.00     0.6779)

 CYCLE   10
  SDIIS (wt  0.651): -0.0000 -0.0000 -0.0004 -0.0001  0.0080  0.0010  0.2390 -0.0018  0.7542
 A-DIIS (wt  0.349):  0.0000  0.0000  0.0000  0.0000  0.0000  0.0000  0.0000  0.0000  1.0000
  DIIS coefficients: -0.0000 -0.0000 -0.0003 -0.0000  0.0052  0.0007  0.1557 -0.0012  0.8400
 SCF Error: norm([F,P])=      0.169050438815, max([F,P])=      0.035534012943
 orbitals (Q,E):
 ---------------
 S :1...6            ( 2.00  -929.8315)  ( 2.00  -136.9430)  ( 2.00   -25.1293)  ( 2.00    -3.5179)
                     ( 1.00    -0.1754)  ( 0.00     0.1168)
 P :1...4            ( 6.00  -122.8037)  ( 6.00   -20.5179)  ( 6.00    -2.1837)  ( 0.00    -0.0048)
 D :1...3            (10.00   -13.2278)  (10.00    -0.2993)  ( 0.00     0.6753)

 CYCLE   11
  SDIIS (wt  0.821):  0.0000 -0.0000 -0.0000 -0.0000 -0.0007 -0.0023  0.0041  0.0720  0.0256  0.9012
 A-DIIS (wt  0.179):  0.0000  0.0000  0.0000  0.0000  0.0000  0.0000  0.0000  0.0000  0.2778  0.7222
  DIIS coefficients:  0.0000 -0.0000 -0.0000 -0.0000 -0.0006 -0.0019  0.0034  0.0591  0.0707  0.8693
 SCF Error: norm([F,P])=      0.065223719360, max([F,P])=      0.018691041837
 orbitals (Q,E):
 ---------------
 S :1...6            ( 2.00  -929.8068)  ( 2.00  -136.9211)  ( 2.00   -25.1146)  ( 2.00    -3.5102)
                     ( 1.00    -0.1744)  ( 0.00     0.1175)
 P :1...4            ( 6.00  -122.7812)  ( 6.00   -20.5030)  ( 6.00    -2.1767)  ( 0.00    -0.0041)
 D :1...3            (10.00   -13.2123)  (10.00    -0.2944)  ( 0.00     0.6781)

 CYCLE   12
  SDIIS (wt  0.993): -0.0000 -0.0000  0.0000 -0.0001  0.0002  0.0004 -0.0045  0.0380  0.0877  0.8785
 A-DIIS (wt  0.007):  0.0000  0.0000  0.0000  0.0000  0.0000  0.0000  0.0000  0.0000  0.0000  1.0000
  DIIS coefficients: -0.0000 -0.0000  0.0000 -0.0001  0.0002  0.0004 -0.0045  0.0377  0.0870  0.8793
 SCF Error: norm([F,P])=      0.005050959596, max([F,P])=      0.001697754820
 orbitals (Q,E):
 ---------------
 S :1...6            ( 2.00  -929.8078)  ( 2.00  -136.9222)  ( 2.00   -25.1157)  ( 2.00    -3.5111)
                     ( 1.00    -0.1745)  ( 0.00     0.1174)
 P :1...4            ( 6.00  -122.7823)  ( 6.00   -20.5042)  ( 6.00    -2.1775)  ( 0.00    -0.0042)
 D :1...3            (10.00   -13.2135)  (10.00    -0.2951)  ( 0.00     0.6778)

 CYCLE   13
  SDIIS (wt  1.000):  0.0000 -0.0000 -0.0000 -0.0000  0.0000  0.0001  0.0012  0.0046  0.0327  0.9615
  DIIS coefficients:  0.0000 -0.0000 -0.0000 -0.0000  0.0000  0.0001  0.0012  0.0046  0.0327  0.9615
 SCF Error: norm([F,P])=      0.000066387568, max([F,P])=      0.000021311364
 orbitals (Q,E):
 ---------------
 S :1...6            ( 2.00  -929.8078)  ( 2.00  -136.9222)  ( 2.00   -25.1157)  ( 2.00    -3.5111)
                     ( 1.00    -0.1745)  ( 0.00     0.1174)
 P :1...4            ( 6.00  -122.7823)  ( 6.00   -20.5042)  ( 6.00    -2.1775)  ( 0.00    -0.0042)
 D :1...3            (10.00   -13.2135)  (10.00    -0.2951)  ( 0.00     0.6778)

 CYCLE   14
  SDIIS (wt  1.000):  0.0000 -0.0000  0.0005  0.0464  0.9531
  DIIS coefficients:  0.0000 -0.0000  0.0005  0.0464  0.9531
 SCF Error: norm([F,P])=      0.000000115589, max([F,P])=      0.000000041185
 orbitals (Q,E):
 ---------------
 S :1...6            ( 2.00  -929.8078)  ( 2.00  -136.9222)  ( 2.00   -25.1157)  ( 2.00    -3.5111)
                     ( 1.00    -0.1745)  ( 0.00     0.1174)
 P :1...4            ( 6.00  -122.7823)  ( 6.00   -20.5042)  ( 6.00    -2.1775)  ( 0.00    -0.0042)
 D :1...3            (10.00   -13.2135)  (10.00    -0.2951)  ( 0.00     0.6778)

 CYCLE   15
  SDIIS (wt  1.000): -0.0000  0.0000 -0.0127  1.0127
  DIIS coefficients: -0.0000  0.0000 -0.0127  1.0127
 SCF Error: norm([F,P])=      0.000000000855, max([F,P])=      0.000000000224
 orbitals (Q,E):
 ---------------
 S :1...6            ( 2.00  -929.8078)  ( 2.00  -136.9222)  ( 2.00   -25.1157)  ( 2.00    -3.5111)
                     ( 1.00    -0.1745)  ( 0.00     0.1174)
 P :1...4            ( 6.00  -122.7823)  ( 6.00   -20.5042)  ( 6.00    -2.1775)  ( 0.00    -0.0042)
 D :1...3            (10.00   -13.2135)  (10.00    -0.2951)  ( 0.00     0.6778)

 SCF CONVERGED

 CYCLE   16
1
 ***************************************************************************************************



                                                *******************
                                                *  R E S U L T S  *
                                                *******************
  
 *** Setting up for NEW gradients in Focky
 *** Using FIT density in Focky

 Scaled ZORA Orbital Energies, per Irrep and Spin:
 =================================================
                        Occup              E (au)              E (eV)       Diff (eV) with prev. cycle
                        -----      --------------------        ------       --------------------------
 S
               1        2.000     -0.92980781351491E+03    -25301.358              -3.84E-10
               2        2.000     -0.13692218732367E+03     -3725.842              -3.00E-10
               3        2.000     -0.25115715375491E+02      -683.433              -3.65E-10
               4        2.000     -0.35111271473316E+01       -95.543              -2.75E-10
               5        1.000     -0.17454898401778E+00        -4.750              -2.18E-10
               6        0.000      0.11737491576661E+00         3.194
               7        0.000      0.24240892995404E+01        65.963
               8        0.000      0.20072560570778E+02       546.202
               9        0.000      0.56477860569117E+03     15368.408
              10        0.000      0.40112422556877E+04    109151.455
              11        0.000      0.20118883270165E+05    547462.669
 P
               1        6.000     -0.12278229434647E+03     -3341.076              -2.77E-10
               2        6.000     -0.20504193536566E+02      -557.947              -3.34E-10
               3        6.000     -0.21775009336032E+01       -59.253              -3.62E-10
               4        0.000     -0.42366030333389E-02        -0.115
               5        0.000      0.18117715145790E+01        49.301
               6        0.000      0.20122694371088E+02       547.566
               7        0.000      0.24139505118432E+03      6568.694
 D
               1       10.000     -0.13213467666992E+02      -359.557              -3.27E-10
               2       10.000     -0.29505919535616E+00        -8.029              -3.58E-10
               3        0.000      0.67777467533318E+00        18.443
               4        0.000      0.96977345267011E+01       263.889
               5        0.000      0.78350490298086E+02      2132.025


 Partially Occupied:
               5 S                -0.17454898401778E+00
  
 HOMO :        2 D                -0.29505919535616E+00
 LUMO :        4 P                -0.42366030333389E-02
  


 Orbital Energies, all Irreps
 ========================================

 Irrep        no.  (spin)   Occup              E (au)                E (eV)
 ---------------------------------------------------------------------------
 S             1             2.00       -0.92980781351491E+03    -25301.3579
 S             2             2.00       -0.13692218732367E+03     -3725.8423
 P             1             6.00       -0.12278229434647E+03     -3341.0762
 S             3             2.00       -0.25115715375491E+02      -683.4334
 P             2             6.00       -0.20504193536566E+02      -557.9475
 D             1            10.00       -0.13213467666992E+02      -359.5567
 S             4             2.00       -0.35111271473316E+01       -95.5426
 P             3             6.00       -0.21775009336032E+01       -59.2528
 D             2            10.00       -0.29505919535616E+00        -8.0290
 S             5             1.00       -0.17454898401778E+00        -4.7497
 P             4             0.00       -0.42366030333389E-02        -0.1153
 S             6             0.00        0.11737491576661E+00         3.1939
 D             3             0.00        0.67777467533318E+00        18.4432
 P             5             0.00        0.18117715145790E+01        49.3008
 S             7             0.00        0.24240892995404E+01        65.9628
 D             4             0.00        0.96977345267011E+01       263.8888
 S             8             0.00        0.20072560570778E+02       546.2022
 P             6             0.00        0.20122694371088E+02       547.5664
 D             5             0.00        0.78350490298086E+02      2132.0253
 P             7             0.00        0.24139505118432E+03      6568.6936
 S             9             0.00        0.56477860569117E+03     15368.4078
 S            10             0.00        0.40112422556877E+04    109151.4554
 S            11             0.00        0.20118883270165E+05    547462.6689


 All Electron Calculation, thus no Orbital Energies of the Core Orbitals are calculated



 =======================================
 M U L L I K E N   P O P U L A T I O N S
 =======================================
  
 The survey below gives for each atom:
 a) the total charge (Z minus electrons)
 b) the net spin polarization (nr of electrons spin-A minus spin-B)
 c) for each spin the atomic electron valence density (integrated) per L-value.

 Atom              Charge    Spin density          S         P         D         F
 ----              ------    ------------       ------    ------    ------    ------
 1 Ag              0.0000                       9.0000   18.0000   20.0000    0.0000

 Populations of individual BAS functions
 ----------------------------------------
 1 Ag           0.0070  0.2129  1.8910 -0.1972  2.0821  1.8558 -0.0711  1.4890  0.7619  0.6523
                0.3162  0.5106  0.5106  0.5106  1.4626  1.4626  1.4626  1.1702  1.1702  1.1702
                0.8485  0.8485  0.8485  1.2667  1.2667  1.2667  0.7413  0.7413  0.7413  0.1517
                0.2276  0.2276  0.1517  0.2276  0.1517  0.8045  1.2067  1.2067  0.8045  1.2067
                0.8045  0.4283  0.6424  0.6424  0.4283  0.6424  0.4283  0.8730  1.3095  1.3095
                0.8730  1.3095  0.8730  0.4092  0.6138  0.6138  0.4092  0.6138  0.4092  0.0001
                0.0001  0.0001

 Gross Charges per Atom (Z minus electrons)
 ==========================================
             0.0000
 Net Total:  0.00000000



 =======================================================================
 Electrostatic potential at the Nuclei due to electrons and other nuclei
 =======================================================================
  
         Atom                  Potential
         ----                  ---------
     1)   Ag                276.22204210
 
 
 ========================
 No memory problems found
 ========================
 
 Maximum number of active allocate calls:         379
 
 *******************************************************************************

                             A D F   E X I T
 NORMAL TERMINATION



 =================
 Timing Statistics
 =================
  
 Total Used :                     CPU=        1.36      System=        0.06     Elapsed=        3.68

 Calls  Section                     ( Mean, Percentage )
 ---------------------------------------------------------------------------------------------------
     3  ><      ................      0.00    0.24             0.00    1.98             0.00    0.35
     1  INIT    ................      0.04    2.77             0.00    7.76             2.18   59.33
     1  GEOMET  ................      0.02    1.44             0.02   28.43             0.07    1.81
     1  INPUTA  ................      0.00    0.32             0.00    0.47             0.02    0.61
     1  MAINSY  ................      0.01    0.78             0.00    1.38             0.02    0.50
     1  SYMFIT  ................      0.00    0.13             0.00    0.00             0.00    0.05
     1  CORORT  ................      0.00    0.07             0.00    0.00             0.00    0.05
     1  SYMORB  ................      0.00    0.06             0.00    0.00             0.00    0.02
     1  CLSMAT  ................      0.01    0.44             0.00    0.00             0.01    0.19
     1  ORTHON  ................      0.01    0.47             0.00    0.00             0.01    0.26
     1  GENPT   ................      0.02    1.75             0.00    0.65             0.04    1.01
     1  PTBAS   ................      0.01    0.44             0.00    0.16             0.01    0.24
    16  FOCKY   ................      0.07   81.55             0.00   32.74             0.07   30.82
    16  FOCKTR  ................      0.00    1.02             0.00    0.91             0.00    0.39
    16  SDIIS   ................      0.00    3.06             0.00   10.15             0.00    1.82
     1  COREPS  ................      0.06    4.15             0.00    0.02             0.06    1.71
     1  POPAN   ................      0.00    0.34             0.00    1.71             0.01    0.18
     1  DEBYE   ................      0.00    0.08             0.00    1.73             0.00    0.09
     1  EXIT PROCEDURE .........      0.01    0.91             0.01   11.93             0.02    0.57


 Currently Open Files (EXIT00)
 ====================

 Unit    Access Format  Status   Type       Ident (file)
 -------------------------------------------------------
   3      SEQ    FORM   TRANSP  NORMAL      LOGFILE
                                          ( logfile )


 Buffered I/O statistics
 =======================
 Memory available:                     67108864
 Number of records fitting in memory:     16131
 Input :   0.1% of                        23784  *4k bytes
 Output:  15.1% of                         1258  *4k bytes
 Records from serial files evicted:           0
                    others evicted:           0
 Hash table lookups:      52741 with          0 conflicts (  0.00%)

 ***************************************************************************************************
 (LOGFILE)
 <Oct18-2020> <16:52:15>  DIRAC 2018  RunTime: Oct18-2020 16:52:15  Nodes: 1  Procs: 1
 <Oct18-2020> <16:52:16>  NORMAL TERMINATION
 <Oct18-2020> <16:52:16>  END
 <Oct18-2020> <16:52:16>  ADF 2018  RunTime: Oct18-2020 16:52:16  Nodes: 1  Procs: 1
 <Oct18-2020> <16:52:16>  Silver (DZ, all electron)
 <Oct18-2020> <16:52:16>  RunType   : CREATE
 <Oct18-2020> <16:52:16>  Net Charge: 0 (Nuclei minus Electrons)
 <Oct18-2020> <16:52:16>  Symmetry  : ATOM
  Coordinates
    Atom         X           Y           Z   (Angstrom)
    1.Ag        0.000000    0.000000    0.000000
 <Oct18-2020> <16:52:16>  >>>> CORORT
 <Oct18-2020> <16:52:16>  >>>> CLSMAT
 <Oct18-2020> <16:52:16>  >>>> ORTHON
 <Oct18-2020> <16:52:16>  >>>> GENPT
 <Oct18-2020> <16:52:17>  Block Length=  90
 <Oct18-2020> <16:52:17>  >>>> PTBAS
 <Oct18-2020> <16:52:17>  >>>> CYCLE
 <Oct18-2020> <16:52:17>              |Error|         MaxErr       Wt(A-DIIS)
 <Oct18-2020> <16:52:17>      1      0.00000000      0.00000000
 <Oct18-2020> <16:52:17>      2    262.47638062     54.42603837    100.0
 <Oct18-2020> <16:52:17>      3    106.67133340     29.83568667    100.0
 <Oct18-2020> <16:52:17>      4     16.28982043      2.89834259    100.0
 <Oct18-2020> <16:52:17>      5     18.02196356      4.42125802    100.0
 <Oct18-2020> <16:52:17>      6      2.90078580      0.62505574    100.0
 <Oct18-2020> <16:52:17>      7      3.22674263      0.87022039    100.0
 <Oct18-2020> <16:52:17>      8      0.47565512      0.09235354     92.3
 <Oct18-2020> <16:52:17>      9      0.31943954      0.07354202     73.3
 <Oct18-2020> <16:52:17>     10      0.06564103      0.02219112     21.4
 <Oct18-2020> <16:52:17>     11      0.01392425      0.00468003      3.7
 <Oct18-2020> <16:52:17>     12      0.00108415      0.00035234      0.0
 <Oct18-2020> <16:52:17>     13      0.00000024      0.00000005      0.0
 <Oct18-2020> <16:52:18>     14      0.00000003      0.00000001      0.0
 <Oct18-2020> <16:52:18>  SCF converged
 <Oct18-2020> <16:52:18>     15      0.00000000      0.00000000      0.0
 <Oct18-2020> <16:52:18>  >>>> POPAN
 <Oct18-2020> <16:52:18>  >>>> DEBYE
 <Oct18-2020> <16:52:18>  NORMAL TERMINATION
 <Oct18-2020> <16:52:18>  END
 <Oct18-2020> <16:52:18>  WARNING: Input file parsing (see output).
 <Oct18-2020> <16:52:18>  ADF 2018  RunTime: Oct18-2020 16:52:18  Nodes: 1  Procs: 1
 <Oct18-2020> <16:52:18>  cluster optimization
 <Oct18-2020> <16:52:18>  RunType   : GEOMETRY OPTIMIZATION
 <Oct18-2020> <16:52:18>  Net Charge: 1 (Nuclei minus Electrons)
 <Oct18-2020> <16:52:18>  Symmetry  : C(5V)
 <Oct18-2020> <16:52:18>  >>>> FRAGM
  Coordinates in Geometry Cycle 1
    Atom         X           Y           Z   (Angstrom)
    1.Ag        0.000000    0.000000    0.056043
    2.Ag        0.000000    0.000000   -2.726717
    3.Ag        0.000000    0.000000    2.871948
    4.Ag        0.000000    0.000000    5.654591
    5.Ag        0.797901    2.455686    1.462466
    6.Ag       -2.088931    1.517697    1.462466
    7.Ag       -2.088931   -1.517697    1.462466
    8.Ag        0.797901   -2.455686    1.462466
    9.Ag        2.525475    0.000000   -1.295596
   10.Ag        0.780415    2.401869   -1.295596
   11.Ag       -2.043152    1.484437   -1.295596
   12.Ag       -2.043152   -1.484437   -1.295596
   13.Ag        0.780415   -2.401869   -1.295596
   14.Ag        2.582061    0.000000    1.462466
   15.Ag        0.780589    2.402404    4.220818
   16.Ag       -2.043607    1.484768    4.220818
   17.Ag       -2.043607   -1.484768    4.220818
   18.Ag        0.780589   -2.402404    4.220818
   19.Ag        2.526038    0.000000    4.220818
 <Oct18-2020> <16:52:19>  >>>> CORORT
 <Oct18-2020> <16:52:19>  >>>> CLSMAT
 <Oct18-2020> <16:52:19>  >>>> ORTHON
 <Oct18-2020> <16:52:19>  >>>> GENPT
 <Oct18-2020> <16:52:19>  Acc.Num.Int.=   4.000
 <Oct18-2020> <16:52:19>  Block Length= 127
 <Oct18-2020> <16:52:19>  >>>> PTBAS
 <Oct18-2020> <16:52:20>  >>>> CYCLE
 <Oct18-2020> <16:52:24>              |Error|         MaxErr       Wt(A-DIIS)
 <Oct18-2020> <16:52:24>      1     14.46551042      1.84795853
 <Oct18-2020> <16:52:26>      2      0.86916826      0.10134244    100.0
 <Oct18-2020> <16:52:32>      3      0.33599233      0.04649998    100.0
 <Oct18-2020> <16:52:34>      4      0.81439944      0.09698965    100.0
 <Oct18-2020> <16:52:36>      5      0.46339597      0.04771936    100.0
 <Oct18-2020> <16:52:38>      6      0.45888946      0.05849095    100.0
 <Oct18-2020> <16:52:40>      7      0.06680022      0.00812756      7.2
 <Oct18-2020> <16:52:42>      8      0.11675821      0.00997101    100.0
 <Oct18-2020> <16:52:44>      9      0.10549685      0.01128710    100.0
 <Oct18-2020> <16:52:46>     10      0.03403664      0.00415263      3.2
 <Oct18-2020> <16:52:48>     11      0.00616065      0.00080118      0.0
 <Oct18-2020> <16:52:50>     12      0.00174879      0.00021172      0.0
 <Oct18-2020> <16:52:52>     13      0.00132145      0.00014483      0.0
 <Oct18-2020> <16:52:55>     14      0.00042743      0.00005457      0.0
 <Oct18-2020> <16:52:57>     15      0.00017079      0.00002670      0.0
 <Oct18-2020> <16:52:59>     16      0.00008709      0.00001148      0.0
 <Oct18-2020> <16:53:01>     17      0.00006866      0.00000951      0.0
 <Oct18-2020> <16:53:03>  SCF converged
 <Oct18-2020> <16:53:04>     18      0.00001027      0.00000163      0.0
 <Oct18-2020> <16:53:05>  >>>> TOTEN
 <Oct18-2020> <16:53:08>  >>>> POPAN
 <Oct18-2020> <16:53:08>  >>>> DEBYE
 <Oct18-2020> <16:53:10>  >>>> ENGRAD
 <Oct18-2020> <16:53:15>  current energy                               -1.16706449 Hartree
 <Oct18-2020> <16:53:15>  energy change                      -1.16706449     0.00100000    F
 <Oct18-2020> <16:53:15>  constrained gradient max            0.01507439     0.00100000    F
 <Oct18-2020> <16:53:15>  constrained gradient rms            0.00691548     0.00066667    F
 <Oct18-2020> <16:53:15>  gradient max                        0.01507439
 <Oct18-2020> <16:53:15>  gradient rms                        0.00691548
 <Oct18-2020> <16:53:15>  cart. step max                      0.00518305     0.01000000    T
 <Oct18-2020> <16:53:15>  cart. step rms                      0.00222047     0.00666667    T
  Coordinates in Geometry Cycle 2
    Atom         X           Y           Z   (Angstrom)
    1.Ag        0.000000    0.000000    0.057531
    2.Ag        0.000000    0.000000   -2.721680
    3.Ag        0.000000    0.000000    2.870442
    4.Ag        0.000000    0.000000    5.649408
    5.Ag        0.797069    2.453125    1.462458
    6.Ag       -2.086753    1.516115    1.462458
    7.Ag       -2.086753   -1.516115    1.462458
    8.Ag        0.797069   -2.453125    1.462458
    9.Ag        2.522919    0.000000   -1.292059
   10.Ag        0.779625    2.399439   -1.292059
   11.Ag       -2.041085    1.482935   -1.292059
   12.Ag       -2.041085   -1.482935   -1.292059
   13.Ag        0.779625   -2.399439   -1.292059
   14.Ag        2.579368    0.000000    1.462458
   15.Ag        0.779810    2.400007    4.217322
   16.Ag       -2.041568    1.483286    4.217322
   17.Ag       -2.041568   -1.483286    4.217322
   18.Ag        0.779810   -2.400007    4.217322
   19.Ag        2.523517    0.000000    4.217322
 <Oct18-2020> <16:53:15>  >>>> CORORT
 <Oct18-2020> <16:53:15>  >>>> CLSMAT
 <Oct18-2020> <16:53:15>  >>>> ORTHON
 <Oct18-2020> <16:53:15>  >>>> GENPT
 <Oct18-2020> <16:53:15>  Acc.Num.Int.=   4.000
 <Oct18-2020> <16:53:15>  Block Length= 127
 <Oct18-2020> <16:53:15>  >>>> PTBAS
 <Oct18-2020> <16:53:16>  >>>> CYCLE
 <Oct18-2020> <16:53:25>              |Error|         MaxErr       Wt(A-DIIS)
 <Oct18-2020> <16:53:25>      1      0.14661599      0.02434474
 <Oct18-2020> <16:53:27>      2      0.00905962      0.00066438    100.0
 <Oct18-2020> <16:53:29>      3      0.00215046      0.00023352    100.0
 <Oct18-2020> <16:53:31>      4      0.00491649      0.00046341      0.0
 <Oct18-2020> <16:53:33>      5      0.00076616      0.00005020      0.0
 <Oct18-2020> <16:53:35>      6      0.00134428      0.00011851      0.0
 <Oct18-2020> <16:53:37>      7      0.00033751      0.00003773      0.0
 <Oct18-2020> <16:53:39>      8      0.00011020      0.00001249      0.0
 <Oct18-2020> <16:53:41>      9      0.00004380      0.00000596      0.0
 <Oct18-2020> <16:53:43>  SCF converged
 <Oct18-2020> <16:53:43>     10      0.00000895      0.00000100      0.0
 <Oct18-2020> <16:53:45>  >>>> TOTEN
 <Oct18-2020> <16:53:48>  >>>> POPAN
 <Oct18-2020> <16:53:48>  >>>> DEBYE
 <Oct18-2020> <16:53:49>  >>>> ENGRAD
 <Oct18-2020> <16:53:54>  current energy                               -1.16787086 Hartree
 <Oct18-2020> <16:53:54>  energy change                      -0.00080638     0.00100000    T
 <Oct18-2020> <16:53:54>  constrained gradient max            0.01407849     0.00100000    F
 <Oct18-2020> <16:53:54>  constrained gradient rms            0.00653732     0.00066667    F
 <Oct18-2020> <16:53:54>  gradient max                        0.01407849
 <Oct18-2020> <16:53:54>  gradient rms                        0.00653732
 <Oct18-2020> <16:53:54>  cart. step max                      0.07913804     0.01000000    F
 <Oct18-2020> <16:53:54>  cart. step rms                      0.03442661     0.00666667    F
  Coordinates in Geometry Cycle 3
    Atom         X           Y           Z   (Angstrom)
    1.Ag        0.000000    0.000000    0.080085
    2.Ag        0.000000    0.000000   -2.644920
    3.Ag        0.000000    0.000000    2.847561
    4.Ag        0.000000    0.000000    5.570270
    5.Ag        0.783661    2.411859    1.462340
    6.Ag       -2.051650    1.490611    1.462340
    7.Ag       -2.051650   -1.490611    1.462340
    8.Ag        0.783661   -2.411859    1.462340
    9.Ag        2.482273    0.000000   -1.238194
   10.Ag        0.767065    2.360782   -1.238194
   11.Ag       -2.008201    1.459044   -1.238194
   12.Ag       -2.008201   -1.459044   -1.238194
   13.Ag        0.767065   -2.360782   -1.238194
   14.Ag        2.535979    0.000000    1.462340
   15.Ag        0.767423    2.361885    4.164117
   16.Ag       -2.009139    1.459725    4.164117
   17.Ag       -2.009139   -1.459725    4.164117
   18.Ag        0.767423   -2.361885    4.164117
   19.Ag        2.483433    0.000000    4.164117
 <Oct18-2020> <16:53:54>  >>>> CORORT
 <Oct18-2020> <16:53:54>  >>>> CLSMAT
 <Oct18-2020> <16:53:55>  >>>> ORTHON
 <Oct18-2020> <16:53:55>  >>>> GENPT
 <Oct18-2020> <16:53:55>  Acc.Num.Int.=   4.000
 <Oct18-2020> <16:53:55>  Block Length= 127
 <Oct18-2020> <16:53:55>  >>>> PTBAS
 <Oct18-2020> <16:53:56>  >>>> CYCLE
 <Oct18-2020> <16:53:59>              |Error|         MaxErr       Wt(A-DIIS)
 <Oct18-2020> <16:53:59>      1      1.23051248      0.10993659
 <Oct18-2020> <16:54:06>      2      0.13991850      0.01052475    100.0
 <Oct18-2020> <16:54:09>      3      0.03339694      0.00383694    100.0
 <Oct18-2020> <16:54:11>      4      0.07514437      0.00823431    100.0
 <Oct18-2020> <16:54:13>      5      0.01622337      0.00186838      0.9
 <Oct18-2020> <16:54:15>      6      0.03593934      0.00323414    100.0
 <Oct18-2020> <16:54:17>      7      0.01608946      0.00154630      0.6
 <Oct18-2020> <16:54:19>      8      0.00144645      0.00014000      0.0
 <Oct18-2020> <16:54:21>      9      0.00023978      0.00003415      0.0
 <Oct18-2020> <16:54:23>     10      0.00015648      0.00002654      0.0
 <Oct18-2020> <16:54:25>     11      0.00006114      0.00001003      0.0
 <Oct18-2020> <16:54:27>     12      0.00001948      0.00000301      0.0
 <Oct18-2020> <16:54:28>  SCF converged
 <Oct18-2020> <16:54:29>     13      0.00000776      0.00000121      0.0
 <Oct18-2020> <16:54:30>  >>>> TOTEN
 <Oct18-2020> <16:54:33>  >>>> POPAN
 <Oct18-2020> <16:54:33>  >>>> DEBYE
 <Oct18-2020> <16:54:34>  >>>> ENGRAD
 <Oct18-2020> <16:54:39>  current energy                               -1.17381172 Hartree
 <Oct18-2020> <16:54:39>  energy change                      -0.00594086     0.00100000    F
 <Oct18-2020> <16:54:39>  constrained gradient max            0.00352182     0.00100000    F
 <Oct18-2020> <16:54:39>  constrained gradient rms            0.00181012     0.00066667    F
 <Oct18-2020> <16:54:39>  gradient max                        0.00352182
 <Oct18-2020> <16:54:39>  gradient rms                        0.00181012
 <Oct18-2020> <16:54:39>  cart. step max                      0.01185112     0.01000000    F
 <Oct18-2020> <16:54:39>  cart. step rms                      0.00480353     0.00666667    T
  Coordinates in Geometry Cycle 4
    Atom         X           Y           Z   (Angstrom)
    1.Ag        0.000000    0.000000    0.076503
    2.Ag        0.000000    0.000000   -2.656558
    3.Ag        0.000000    0.000000    2.851153
    4.Ag        0.000000    0.000000    5.582121
    5.Ag        0.785041    2.416108    1.462370
    6.Ag       -2.055264    1.493237    1.462370
    7.Ag       -2.055264   -1.493237    1.462370
    8.Ag        0.785041   -2.416108    1.462370
    9.Ag        2.486968    0.000000   -1.246570
   10.Ag        0.768515    2.365247   -1.246570
   11.Ag       -2.011999    1.461803   -1.246570
   12.Ag       -2.011999   -1.461803   -1.246570
   13.Ag        0.768515   -2.365247   -1.246570
   14.Ag        2.540446    0.000000    1.462370
   15.Ag        0.768862    2.366314    4.172416
   16.Ag       -2.012907    1.462463    4.172416
   17.Ag       -2.012907   -1.462463    4.172416
   18.Ag        0.768862   -2.366314    4.172416
   19.Ag        2.488090    0.000000    4.172416
 <Oct18-2020> <16:54:39>  >>>> CORORT
 <Oct18-2020> <16:54:39>  >>>> CLSMAT
 <Oct18-2020> <16:54:40>  >>>> ORTHON
 <Oct18-2020> <16:54:40>  >>>> GENPT
 <Oct18-2020> <16:54:40>  Acc.Num.Int.=   4.000
 <Oct18-2020> <16:54:40>  Block Length= 127
 <Oct18-2020> <16:54:40>  >>>> PTBAS
 <Oct18-2020> <16:54:41>  >>>> CYCLE
 <Oct18-2020> <16:54:44>              |Error|         MaxErr       Wt(A-DIIS)
 <Oct18-2020> <16:54:44>      1      0.16817360      0.01407977
 <Oct18-2020> <16:54:46>      2      0.01202523      0.00096670    100.0
 <Oct18-2020> <16:54:52>      3      0.00321402      0.00037985    100.0
 <Oct18-2020> <16:54:54>      4      0.00720166      0.00091916      0.0
 <Oct18-2020> <16:54:57>      5      0.00374121      0.00031986      0.0
 <Oct18-2020> <16:55:00>      6      0.00312471      0.00027181      0.0
 <Oct18-2020> <16:55:02>      7      0.00040410      0.00004388      0.0
 <Oct18-2020> <16:55:05>      8      0.00029816      0.00004839      0.0
 <Oct18-2020> <16:55:07>      9      0.00008670      0.00000770      0.0
 <Oct18-2020> <16:55:08>  SCF converged
 <Oct18-2020> <16:55:09>     10      0.00000868      0.00000069      0.0
 <Oct18-2020> <16:55:11>  >>>> TOTEN
 <Oct18-2020> <16:55:13>  >>>> POPAN
 <Oct18-2020> <16:55:14>  >>>> DEBYE
 <Oct18-2020> <16:55:15>  >>>> ENGRAD
 <Oct18-2020> <16:55:20>  current energy                               -1.17387442 Hartree
 <Oct18-2020> <16:55:20>  energy change                      -0.00006270     0.00100000    T
 <Oct18-2020> <16:55:20>  constrained gradient max            0.00375786     0.00100000    F
 <Oct18-2020> <16:55:20>  constrained gradient rms            0.00156897     0.00066667    F
 <Oct18-2020> <16:55:20>  gradient max                        0.00375786
 <Oct18-2020> <16:55:20>  gradient rms                        0.00156897
 <Oct18-2020> <16:55:20>  cart. step max                      0.00294178     0.01000000    T
 <Oct18-2020> <16:55:20>  cart. step rms                      0.00118231     0.00666667    T
  Coordinates in Geometry Cycle 5
    Atom         X           Y           Z   (Angstrom)
    1.Ag        0.000000    0.000000    0.075440
    2.Ag        0.000000    0.000000   -2.659500
    3.Ag        0.000000    0.000000    2.852174
    4.Ag        0.000000    0.000000    5.584962
    5.Ag        0.784698    2.415052    1.462393
    6.Ag       -2.054366    1.492584    1.462393
    7.Ag       -2.054366   -1.492584    1.462393
    8.Ag        0.784698   -2.415052    1.462393
    9.Ag        2.486608    0.000000   -1.248879
   10.Ag        0.768404    2.364905   -1.248879
   11.Ag       -2.011708    1.461592   -1.248879
   12.Ag       -2.011708   -1.461592   -1.248879
   13.Ag        0.768404   -2.364905   -1.248879
   14.Ag        2.539336    0.000000    1.462393
   15.Ag        0.768764    2.366013    4.174732
   16.Ag       -2.012651    1.462276    4.174732
   17.Ag       -2.012651   -1.462276    4.174732
   18.Ag        0.768764   -2.366013    4.174732
   19.Ag        2.487773    0.000000    4.174732
 <Oct18-2020> <16:55:20>  >>>> CORORT
 <Oct18-2020> <16:55:20>  >>>> CLSMAT
 <Oct18-2020> <16:55:21>  >>>> ORTHON
 <Oct18-2020> <16:55:21>  >>>> GENPT
 <Oct18-2020> <16:55:21>  Acc.Num.Int.=   4.000
 <Oct18-2020> <16:55:21>  Block Length= 127
 <Oct18-2020> <16:55:21>  >>>> PTBAS
 <Oct18-2020> <16:55:22>  >>>> CYCLE
 <Oct18-2020> <16:55:25>              |Error|         MaxErr       Wt(A-DIIS)
 <Oct18-2020> <16:55:25>      1      0.12261191      0.02107061
 <Oct18-2020> <16:55:27>      2      0.00159266      0.00012383    100.0
 <Oct18-2020> <16:55:29>      3      0.00045295      0.00004900    100.0
 <Oct18-2020> <16:55:31>      4      0.00117051      0.00011966      0.0
 <Oct18-2020> <16:55:33>      5      0.00111847      0.00009963      0.0
 <Oct18-2020> <16:55:35>      6      0.00018479      0.00001324      0.0
 <Oct18-2020> <16:55:38>      7      0.00007806      0.00001036      0.0
 <Oct18-2020> <16:55:40>      8      0.00002588      0.00000266      0.0
 <Oct18-2020> <16:55:41>  SCF converged
 <Oct18-2020> <16:55:46>      9      0.00001322      0.00000164      0.0
 <Oct18-2020> <16:55:47>  >>>> TOTEN
 <Oct18-2020> <16:55:50>  >>>> POPAN
 <Oct18-2020> <16:55:50>  >>>> DEBYE
 <Oct18-2020> <16:55:51>  >>>> ENGRAD
 <Oct18-2020> <16:55:56>  current energy                               -1.17393764 Hartree
 <Oct18-2020> <16:55:56>  energy change                      -0.00006323     0.00100000    T
 <Oct18-2020> <16:55:56>  constrained gradient max            0.00361278     0.00100000    F
 <Oct18-2020> <16:55:56>  constrained gradient rms            0.00145316     0.00066667    F
 <Oct18-2020> <16:55:56>  gradient max                        0.00361278
 <Oct18-2020> <16:55:56>  gradient rms                        0.00145316
 <Oct18-2020> <16:55:56>  cart. step max                      0.01739493     0.01000000    F
 <Oct18-2020> <16:55:56>  cart. step rms                      0.00843035     0.00666667    F
  Coordinates in Geometry Cycle 6
    Atom         X           Y           Z   (Angstrom)
    1.Ag        0.000000    0.000000    0.068715
    2.Ag        0.000000    0.000000   -2.676894
    3.Ag        0.000000    0.000000    2.858496
    4.Ag        0.000000    0.000000    5.601253
    5.Ag        0.780485    2.402085    1.462574
    6.Ag       -2.043336    1.484570    1.462574
    7.Ag       -2.043336   -1.484570    1.462574
    8.Ag        0.780485   -2.402085    1.462574
    9.Ag        2.479724    0.000000   -1.263038
   10.Ag        0.766277    2.358358   -1.263038
   11.Ag       -2.006139    1.457545   -1.263038
   12.Ag       -2.006139   -1.457545   -1.263038
   13.Ag        0.766277   -2.358358   -1.263038
   14.Ag        2.525702    0.000000    1.462574
   15.Ag        0.766764    2.359858    4.189011
   16.Ag       -2.007415    1.458472    4.189011
   17.Ag       -2.007415   -1.458472    4.189011
   18.Ag        0.766764   -2.359858    4.189011
   19.Ag        2.481301    0.000000    4.189011
 <Oct18-2020> <16:55:56>  >>>> CORORT
 <Oct18-2020> <16:55:56>  >>>> CLSMAT
 <Oct18-2020> <16:55:56>  >>>> ORTHON
 <Oct18-2020> <16:55:57>  >>>> GENPT
 <Oct18-2020> <16:55:57>  Acc.Num.Int.=   4.000
 <Oct18-2020> <16:55:57>  Block Length= 127
 <Oct18-2020> <16:55:57>  >>>> PTBAS
 <Oct18-2020> <16:55:58>  >>>> CYCLE
 <Oct18-2020> <16:56:01>              |Error|         MaxErr       Wt(A-DIIS)
 <Oct18-2020> <16:56:01>      1      0.24723011      0.03011878
 <Oct18-2020> <16:56:03>      2      0.00593472      0.00067329    100.0
 <Oct18-2020> <16:56:05>      3      0.00213483      0.00017598    100.0
 <Oct18-2020> <16:56:07>      4      0.00685301      0.00054823      0.0
 <Oct18-2020> <16:56:09>      5      0.00463662      0.00054524      0.0
 <Oct18-2020> <16:56:11>      6      0.00109871      0.00011026      0.0
 <Oct18-2020> <16:56:13>      7      0.00061836      0.00005918      0.0
 <Oct18-2020> <16:56:15>      8      0.00011050      0.00001162      0.0
 <Oct18-2020> <16:56:17>      9      0.00005505      0.00000637      0.0
 <Oct18-2020> <16:56:18>  SCF converged
 <Oct18-2020> <16:56:19>     10      0.00000406      0.00000049      0.0
 <Oct18-2020> <16:56:20>  >>>> TOTEN
 <Oct18-2020> <16:56:23>  >>>> POPAN
 <Oct18-2020> <16:56:23>  >>>> DEBYE
 <Oct18-2020> <16:56:24>  >>>> ENGRAD
 <Oct18-2020> <16:56:29>  current energy                               -1.17427171 Hartree
 <Oct18-2020> <16:56:29>  energy change                      -0.00033407     0.00100000    T
 <Oct18-2020> <16:56:29>  constrained gradient max            0.00179462     0.00100000    F
 <Oct18-2020> <16:56:29>  constrained gradient rms            0.00055623     0.00066667    T
 <Oct18-2020> <16:56:29>  gradient max                        0.00179462
 <Oct18-2020> <16:56:29>  gradient rms                        0.00055623
 <Oct18-2020> <16:56:29>  cart. step max                      0.00535322     0.01000000    T
 <Oct18-2020> <16:56:29>  cart. step rms                      0.00234957     0.00666667    T
  Coordinates in Geometry Cycle 7
    Atom         X           Y           Z   (Angstrom)
    1.Ag        0.000000    0.000000    0.067374
    2.Ag        0.000000    0.000000   -2.679954
    3.Ag        0.000000    0.000000    2.859685
    4.Ag        0.000000    0.000000    5.603907
    5.Ag        0.778831    2.396994    1.462625
    6.Ag       -2.039005    1.481424    1.462625
    7.Ag       -2.039005   -1.481424    1.462625
    8.Ag        0.778831   -2.396994    1.462625
    9.Ag        2.476712    0.000000   -1.265555
   10.Ag        0.765346    2.355493   -1.265555
   11.Ag       -2.003702    1.455775   -1.265555
   12.Ag       -2.003702   -1.455775   -1.265555
   13.Ag        0.765346   -2.355493   -1.265555
   14.Ag        2.520349    0.000000    1.462625
   15.Ag        0.765874    2.357119    4.191589
   16.Ag       -2.005085    1.456779    4.191589
   17.Ag       -2.005085   -1.456779    4.191589
   18.Ag        0.765874   -2.357119    4.191589
   19.Ag        2.478421    0.000000    4.191589
 <Oct18-2020> <16:56:29>  >>>> CORORT
 <Oct18-2020> <16:56:29>  >>>> CLSMAT
 <Oct18-2020> <16:56:29>  >>>> ORTHON
 <Oct18-2020> <16:56:30>  >>>> GENPT
 <Oct18-2020> <16:56:30>  Acc.Num.Int.=   4.000
 <Oct18-2020> <16:56:30>  Block Length= 127
 <Oct18-2020> <16:56:30>  >>>> PTBAS
 <Oct18-2020> <16:56:31>  >>>> CYCLE
 <Oct18-2020> <16:56:35>              |Error|         MaxErr       Wt(A-DIIS)
 <Oct18-2020> <16:56:35>      1      0.15877336      0.02440701
 <Oct18-2020> <16:56:37>      2      0.00228218      0.00020838    100.0
 <Oct18-2020> <16:56:39>      3      0.00072869      0.00007698    100.0
 <Oct18-2020> <16:56:42>      4      0.00226153      0.00029108      0.0
 <Oct18-2020> <16:56:44>      5      0.00174859      0.00015428      0.0
 <Oct18-2020> <16:56:47>      6      0.00052916      0.00008914      0.0
 <Oct18-2020> <16:56:49>      7      0.00017892      0.00001720      0.0
 <Oct18-2020> <16:56:51>      8      0.00004578      0.00000593      0.0
 <Oct18-2020> <16:56:53>  SCF converged
 <Oct18-2020> <16:56:54>      9      0.00001144      0.00000103      0.0
 <Oct18-2020> <16:56:56>  >>>> TOTEN
 <Oct18-2020> <16:56:59>  >>>> POPAN
 <Oct18-2020> <16:56:59>  >>>> DEBYE
 <Oct18-2020> <16:57:00>  >>>> ENGRAD
 <Oct18-2020> <16:57:06>  current energy                               -1.17432583 Hartree
 <Oct18-2020> <16:57:06>  energy change                      -0.00005411     0.00100000    T
 <Oct18-2020> <16:57:06>  constrained gradient max            0.00092855     0.00100000    T
 <Oct18-2020> <16:57:06>  constrained gradient rms            0.00038790     0.00066667    T
 <Oct18-2020> <16:57:06>  gradient max                        0.00092855
 <Oct18-2020> <16:57:06>  gradient rms                        0.00038790
 <Oct18-2020> <16:57:06>  cart. step max                      0.00098579     0.01000000    T
 <Oct18-2020> <16:57:06>  cart. step rms                      0.00045782     0.00666667    T
 <Oct18-2020> <16:57:06>  GEOMETRY CONVERGED
 <Oct18-2020> <16:57:06>  Calculating Energy Terms for Final Geometry
  Coordinates in Geometry Cycle 7
    Atom         X           Y           Z   (Angstrom)
    1.Ag        0.000000    0.000000    0.067374
    2.Ag        0.000000    0.000000   -2.679954
    3.Ag        0.000000    0.000000    2.859685
    4.Ag        0.000000    0.000000    5.603907
    5.Ag        0.778831    2.396994    1.462625
    6.Ag       -2.039005    1.481424    1.462625
    7.Ag       -2.039005   -1.481424    1.462625
    8.Ag        0.778831   -2.396994    1.462625
    9.Ag        2.476712    0.000000   -1.265555
   10.Ag        0.765346    2.355493   -1.265555
   11.Ag       -2.003702    1.455775   -1.265555
   12.Ag       -2.003702   -1.455775   -1.265555
   13.Ag        0.765346   -2.355493   -1.265555
   14.Ag        2.520349    0.000000    1.462625
   15.Ag        0.765874    2.357119    4.191589
   16.Ag       -2.005085    1.456779    4.191589
   17.Ag       -2.005085   -1.456779    4.191589
   18.Ag        0.765874   -2.357119    4.191589
   19.Ag        2.478421    0.000000    4.191589
 <Oct18-2020> <16:57:06>  >>>> CORORT
 <Oct18-2020> <16:57:06>  >>>> CLSMAT
 <Oct18-2020> <16:57:06>  >>>> ORTHON
 <Oct18-2020> <16:57:06>  >>>> GENPT
 <Oct18-2020> <16:57:06>  Acc.Num.Int.=   4.000
 <Oct18-2020> <16:57:06>  Block Length= 127
 <Oct18-2020> <16:57:06>  >>>> PTBAS
 <Oct18-2020> <16:57:08>  >>>> CYCLE
 <Oct18-2020> <16:57:11>              |Error|         MaxErr       Wt(A-DIIS)
 <Oct18-2020> <16:57:11>      1      0.12091240      0.02222127
 <Oct18-2020> <16:57:13>      2      0.00000965      0.00000115    100.0
 <Oct18-2020> <16:57:15>  SCF converged
 <Oct18-2020> <16:57:15>      3      0.00000389      0.00000046    100.0
 <Oct18-2020> <16:57:17>  >>>> TOTEN
 <Oct18-2020> <16:57:27>  >>>> POPAN
 <Oct18-2020> <16:57:27>  >>>> DEBYE
 <Oct18-2020> <16:57:28>  >>>> AMETS
 <Oct18-2020> <16:57:28>  >>>> POPUL
 <Oct18-2020> <16:57:29>   Bond Energy          -1.17432584 a.u.
 <Oct18-2020> <16:57:29>   Bond Energy         -31.95503198 eV
 <Oct18-2020> <16:57:29>   Bond Energy        -736.90       kcal/mol
 <Oct18-2020> <16:57:29>  NORMAL TERMINATION with warnings
 <Oct18-2020> <16:57:29>  END
 <Nov03-2020> <09:36:33>  DIRAC 2018  RunTime: Nov03-2020 09:36:33  Nodes: 1  Procs: 1
 <Nov03-2020> <09:36:34>  NORMAL TERMINATION
 <Nov03-2020> <09:36:34>  END
 <Nov03-2020> <09:36:36>  ADF 2018  RunTime: Nov03-2020 09:36:36  Nodes: 1  Procs: 1
 <Nov03-2020> <09:36:36>  Silver (DZ, all electron)
 <Nov03-2020> <09:36:36>  RunType   : CREATE
 <Nov03-2020> <09:36:36>  Net Charge: 0 (Nuclei minus Electrons)
 <Nov03-2020> <09:36:36>  Symmetry  : ATOM
  Coordinates
    Atom         X           Y           Z   (Angstrom)
    1.Ag        0.000000    0.000000    0.000000
 <Nov03-2020> <09:36:36>  >>>> CORORT
 <Nov03-2020> <09:36:36>  >>>> CLSMAT
 <Nov03-2020> <09:36:36>  >>>> ORTHON
 <Nov03-2020> <09:36:36>  >>>> GENPT
 <Nov03-2020> <09:36:36>  Block Length=  90
 <Nov03-2020> <09:36:36>  >>>> PTBAS
 <Nov03-2020> <09:36:36>  >>>> CYCLE
 <Nov03-2020> <09:36:36>              |Error|         MaxErr       Wt(A-DIIS)
 <Nov03-2020> <09:36:37>      1      0.00000000      0.00000000
 <Nov03-2020> <09:36:37>      2    262.47705830     54.42466343    100.0
 <Nov03-2020> <09:36:37>      3    106.74749413     29.86783379    100.0
 <Nov03-2020> <09:36:37>      4     16.01081672      2.89289253    100.0
 <Nov03-2020> <09:36:37>      5     17.97394031      4.54914235    100.0
 <Nov03-2020> <09:36:37>      6      3.05643144      0.70739000    100.0
 <Nov03-2020> <09:36:37>      7      3.63239415      0.98831964    100.0
 <Nov03-2020> <09:36:37>      8      0.62032265      0.13428440    100.0
 <Nov03-2020> <09:36:37>      9      0.70874948      0.20452446    100.0
 <Nov03-2020> <09:36:37>     10      0.16905044      0.03553401     34.9
 <Nov03-2020> <09:36:37>     11      0.06522372      0.01869104     17.9
 <Nov03-2020> <09:36:37>     12      0.00505096      0.00169775      0.7
 <Nov03-2020> <09:36:37>     13      0.00006639      0.00002131      0.0
 <Nov03-2020> <09:36:37>     14      0.00000012      0.00000004      0.0
 <Nov03-2020> <09:36:37>     15      0.00000000      0.00000000      0.0
 <Nov03-2020> <09:36:37>  SCF converged
 <Nov03-2020> <09:36:37>     16      0.00000000      0.00000000      0.0
 <Nov03-2020> <09:36:38>  >>>> POPAN
 <Nov03-2020> <09:36:38>  >>>> DEBYE
 <Nov03-2020> <09:36:38>  NORMAL TERMINATION
 <Nov03-2020> <09:36:38>  END
NORMAL TERMINATION


 Parallel Execution: Process Information
 ==============================================================================
 Rank   Node Name                              NodeID   MyNodeRank  NodeMaster
    0   compute-8-1                               0          0          0
 ==============================================================================


 
title Ag34 pentagonal cluster d2h excitation

RELATIVISTIC ZORA

SCF
 Converge 1e-7
 Iterations 300
END

INTEGRATION 6.0

CHARGE +1

XC
  model SAOP
END

::GEOMETRY
:: converge E=1e-4 grad=1e-3
:: iterations 100
:: frequencies
::END

EXCITATIONS
 allowed
 kfwrite 3
 ONLYSING
 lowest 1500
 tolerance 1e-6
 orthonormality 1e-8
end

PRINT DIPOLEMAT
PRINT SFO

Atoms
Ag        0.000000    0.000000    0.056043
Ag        0.000000    0.000000   -2.726717
Ag        0.000000    0.000000    2.871948
Ag        0.000000    0.000000    5.654591
Ag        0.797901    2.455686    1.462466
Ag       -2.088931    1.517697    1.462466
Ag       -2.088931   -1.517697    1.462466
Ag        0.797901   -2.455686    1.462466
Ag        2.525475    0.000000   -1.295596
Ag        0.780415    2.401869   -1.295596
Ag       -2.043152    1.484437   -1.295596
Ag       -2.043152   -1.484437   -1.295596
Ag        0.780415   -2.401869   -1.295596
Ag        2.582061    0.000000    1.462466
Ag        0.780589    2.402404    4.220818
Ag       -2.043607    1.484768    4.220818
Ag       -2.043607   -1.484768    4.220818
Ag        0.780589   -2.402404    4.220818
Ag        2.526038    0.000000    4.220818
End

Fragments
Ag t21.Ag
End
WARNING: Input file parsing. Old input format detected (ADF2017 or older).
Converted input file:

title Ag34 pentagonal cluster d2h excitation
RELATIVISTIC ZORA
SCF
 Converge 1e-7
 Iterations 300
END
Integration
   Accint 6.0
End
CHARGE +1
XC
  model SAOP
END
EXCITATIONS
 allowed
 kfwrite 3
 ONLYSING
 lowest 1500
 tolerance 1e-6
 orthonormality 1e-8
end
PRINT DIPOLEMAT
PRINT SFO
Atoms
Ag        0.000000    0.000000    0.056043
Ag        0.000000    0.000000   -2.726717
Ag        0.000000    0.000000    2.871948
Ag        0.000000    0.000000    5.654591
Ag        0.797901    2.455686    1.462466
Ag       -2.088931    1.517697    1.462466
Ag       -2.088931   -1.517697    1.462466
Ag        0.797901   -2.455686    1.462466
Ag        2.525475    0.000000   -1.295596
Ag        0.780415    2.401869   -1.295596
Ag       -2.043152    1.484437   -1.295596
Ag       -2.043152   -1.484437   -1.295596
Ag        0.780415   -2.401869   -1.295596
Ag        2.582061    0.000000    1.462466
Ag        0.780589    2.402404    4.220818
Ag       -2.043607    1.484768    4.220818
Ag       -2.043607   -1.484768    4.220818
Ag        0.780589   -2.402404    4.220818
Ag        2.526038    0.000000    4.220818
End
Fragments
Ag t21.Ag
End

 *******************************************************************************
 *                                                                             *
 *  -------------------------------------                                      *
 *   Amsterdam Density Functional  (ADF)         2018                          *
 *  -------------------------------------                                      *
 *                                               r70630 2018-11-24             *
 *                                                                             *
 *                                                                             *
 *                              =================                              *
 *                              |               |                              *
 *                              |     A D F     |                              *
 *                              |               |                              *
 *                              =================                              *
 *                                                                             *
 *                                                                             *
 *   Online information and documentation:  https://www.scm.com/support/       *
 *   E-mail:  support@scm.com   info@scm.com                                   *
 *                                                                             *
 *   Scientific publications using ADF results must be properly referenced     *
 *   See the User Manuals (or the web site) for recommended citations          *
 *   The terms and conditions of the End User License Agreement apply to       *
 *   the use of ADF, https://www.scm.com/license-terms/                        *
 *                                                                             *
 **********************  x86_64_linux_intel / intelmpi  ************************
 
 Licensed to: Dr. Rebecca Gieseking / Brandeis University, Chemistry / Waltham / Massachusetts / USA
 SCM User ID: u20545
  
 ADF 2018  RunTime: Nov03-2020 09:36:38  Nodes: 1  Procs: 1

 Temporary files are created in /local_scratch/alvadillon/22705/kid_0.491998490

 Ag34 pentagonal cluster d2h excitation



 ===========================
 A T T A C H E D   F I L E S
 ===========================
  



 ===============================
 M O D E L   P A R A M E T E R S
 ===============================
  


 DENSITY FUNCTIONAL POTENTIAL (scf)
    LDA:                               VWN                                      
    Gradient Corrections:              SAOP                                    == Not Default ==

 SPIN  (restricted / unrestr.)
    Molecule:                          Restricted                               
    Fragments:                         Restricted                               

 OTHER ASPECTS
    Relativistic Corrections:          scalar (ZORA,MAPA)                      == Not Default ==

    Nuclear Charge Density Model:      Point Charge Nuclei                      
    Core Treatment:                    Frozen Orbital(s)                        

    Hyperfine or Zeeman Interaction:   ---                                      


 Fragment File(s)
 ----------------
 Ag:
         file : t21.Ag
         jobid: ADF 2018  RunTime: Nov03-2020 09:36:36  Nodes: 1  Procs: 1
         title: Silver (DZ, all electron)



                                        ************************************
                                        *  R U N   T Y P E : SINGLE POINT  *
                                        ************************************
  



 ===============
 G E O M E T R Y  ***  3D  Molecule  ***
 ===============
  

 ATOMS
 =====                            X Y Z                    CHARGE
                                (Angstrom)             Nucl     +Core       At.Mass
                       --------------------------    ----------------       -------
    1  Ag              0.0000    0.0000    0.0560     47.00     47.00      106.9051
    2  Ag              0.0000    0.0000   -2.7267     47.00     47.00      106.9051
    3  Ag              0.0000    0.0000    2.8719     47.00     47.00      106.9051
[...]
 <Oct18-2020> <16:55:20>  constrained gradient rms            0.00156897     0.00066667    F
 <Oct18-2020> <16:55:20>  gradient max                        0.00375786
 <Oct18-2020> <16:55:20>  gradient rms                        0.00156897
 <Oct18-2020> <16:55:20>  cart. step max                      0.00294178     0.01000000    T
 <Oct18-2020> <16:55:20>  cart. step rms                      0.00118231     0.00666667    T
  Coordinates in Geometry Cycle 5
    Atom         X           Y           Z   (Angstrom)
    1.Ag        0.000000    0.000000    0.075440
    2.Ag        0.000000    0.000000   -2.659500
    3.Ag        0.000000    0.000000    2.852174
    4.Ag        0.000000    0.000000    5.584962
    5.Ag        0.784698    2.415052    1.462393
    6.Ag       -2.054366    1.492584    1.462393
    7.Ag       -2.054366   -1.492584    1.462393
    8.Ag        0.784698   -2.415052    1.462393
    9.Ag        2.486608    0.000000   -1.248879
   10.Ag        0.768404    2.364905   -1.248879
   11.Ag       -2.011708    1.461592   -1.248879
   12.Ag       -2.011708   -1.461592   -1.248879
   13.Ag        0.768404   -2.364905   -1.248879
   14.Ag        2.539336    0.000000    1.462393
   15.Ag        0.768764    2.366013    4.174732
   16.Ag       -2.012651    1.462276    4.174732
   17.Ag       -2.012651   -1.462276    4.174732
   18.Ag        0.768764   -2.366013    4.174732
   19.Ag        2.487773    0.000000    4.174732
 <Oct18-2020> <16:55:20>  >>>> CORORT
 <Oct18-2020> <16:55:20>  >>>> CLSMAT
 <Oct18-2020> <16:55:21>  >>>> ORTHON
 <Oct18-2020> <16:55:21>  >>>> GENPT
 <Oct18-2020> <16:55:21>  Acc.Num.Int.=   4.000
 <Oct18-2020> <16:55:21>  Block Length= 127
 <Oct18-2020> <16:55:21>  >>>> PTBAS
 <Oct18-2020> <16:55:22>  >>>> CYCLE
 <Oct18-2020> <16:55:25>              |Error|         MaxErr       Wt(A-DIIS)
 <Oct18-2020> <16:55:25>      1      0.12261191      0.02107061
 <Oct18-2020> <16:55:27>      2      0.00159266      0.00012383    100.0
 <Oct18-2020> <16:55:29>      3      0.00045295      0.00004900    100.0
 <Oct18-2020> <16:55:31>      4      0.00117051      0.00011966      0.0
 <Oct18-2020> <16:55:33>      5      0.00111847      0.00009963      0.0
 <Oct18-2020> <16:55:35>      6      0.00018479      0.00001324      0.0
 <Oct18-2020> <16:55:38>      7      0.00007806      0.00001036      0.0
 <Oct18-2020> <16:55:40>      8      0.00002588      0.00000266      0.0
 <Oct18-2020> <16:55:41>  SCF converged
 <Oct18-2020> <16:55:46>      9      0.00001322      0.00000164      0.0
 <Oct18-2020> <16:55:47>  >>>> TOTEN
 <Oct18-2020> <16:55:50>  >>>> POPAN
 <Oct18-2020> <16:55:50>  >>>> DEBYE
 <Oct18-2020> <16:55:51>  >>>> ENGRAD
 <Oct18-2020> <16:55:56>  current energy                               -1.17393764 Hartree
 <Oct18-2020> <16:55:56>  energy change                      -0.00006323     0.00100000    T
 <Oct18-2020> <16:55:56>  constrained gradient max            0.00361278     0.00100000    F
 <Oct18-2020> <16:55:56>  constrained gradient rms            0.00145316     0.00066667    F
 <Oct18-2020> <16:55:56>  gradient max                        0.00361278
 <Oct18-2020> <16:55:56>  gradient rms                        0.00145316
 <Oct18-2020> <16:55:56>  cart. step max                      0.01739493     0.01000000    F
 <Oct18-2020> <16:55:56>  cart. step rms                      0.00843035     0.00666667    F
  Coordinates in Geometry Cycle 6
    Atom         X           Y           Z   (Angstrom)
    1.Ag        0.000000    0.000000    0.068715
    2.Ag        0.000000    0.000000   -2.676894
    3.Ag        0.000000    0.000000    2.858496
    4.Ag        0.000000    0.000000    5.601253
    5.Ag        0.780485    2.402085    1.462574
    6.Ag       -2.043336    1.484570    1.462574
    7.Ag       -2.043336   -1.484570    1.462574
    8.Ag        0.780485   -2.402085    1.462574
    9.Ag        2.479724    0.000000   -1.263038
   10.Ag        0.766277    2.358358   -1.263038
   11.Ag       -2.006139    1.457545   -1.263038
   12.Ag       -2.006139   -1.457545   -1.263038
   13.Ag        0.766277   -2.358358   -1.263038
   14.Ag        2.525702    0.000000    1.462574
   15.Ag        0.766764    2.359858    4.189011
   16.Ag       -2.007415    1.458472    4.189011
   17.Ag       -2.007415   -1.458472    4.189011
   18.Ag        0.766764   -2.359858    4.189011
   19.Ag        2.481301    0.000000    4.189011
 <Oct18-2020> <16:55:56>  >>>> CORORT
 <Oct18-2020> <16:55:56>  >>>> CLSMAT
 <Oct18-2020> <16:55:56>  >>>> ORTHON
 <Oct18-2020> <16:55:57>  >>>> GENPT
 <Oct18-2020> <16:55:57>  Acc.Num.Int.=   4.000
 <Oct18-2020> <16:55:57>  Block Length= 127
 <Oct18-2020> <16:55:57>  >>>> PTBAS
 <Oct18-2020> <16:55:58>  >>>> CYCLE
 <Oct18-2020> <16:56:01>              |Error|         MaxErr       Wt(A-DIIS)
 <Oct18-2020> <16:56:01>      1      0.24723011      0.03011878
 <Oct18-2020> <16:56:03>      2      0.00593472      0.00067329    100.0
 <Oct18-2020> <16:56:05>      3      0.00213483      0.00017598    100.0
 <Oct18-2020> <16:56:07>      4      0.00685301      0.00054823      0.0
 <Oct18-2020> <16:56:09>      5      0.00463662      0.00054524      0.0
 <Oct18-2020> <16:56:11>      6      0.00109871      0.00011026      0.0
 <Oct18-2020> <16:56:13>      7      0.00061836      0.00005918      0.0
 <Oct18-2020> <16:56:15>      8      0.00011050      0.00001162      0.0
 <Oct18-2020> <16:56:17>      9      0.00005505      0.00000637      0.0
 <Oct18-2020> <16:56:18>  SCF converged
 <Oct18-2020> <16:56:19>     10      0.00000406      0.00000049      0.0
 <Oct18-2020> <16:56:20>  >>>> TOTEN
 <Oct18-2020> <16:56:23>  >>>> POPAN
 <Oct18-2020> <16:56:23>  >>>> DEBYE
 <Oct18-2020> <16:56:24>  >>>> ENGRAD
 <Oct18-2020> <16:56:29>  current energy                               -1.17427171 Hartree
 <Oct18-2020> <16:56:29>  energy change                      -0.00033407     0.00100000    T
 <Oct18-2020> <16:56:29>  constrained gradient max            0.00179462     0.00100000    F
 <Oct18-2020> <16:56:29>  constrained gradient rms            0.00055623     0.00066667    T
 <Oct18-2020> <16:56:29>  gradient max                        0.00179462
 <Oct18-2020> <16:56:29>  gradient rms                        0.00055623
 <Oct18-2020> <16:56:29>  cart. step max                      0.00535322     0.01000000    T
 <Oct18-2020> <16:56:29>  cart. step rms                      0.00234957     0.00666667    T
  Coordinates in Geometry Cycle 7
    Atom         X           Y           Z   (Angstrom)
    1.Ag        0.000000    0.000000    0.067374
    2.Ag        0.000000    0.000000   -2.679954
    3.Ag        0.000000    0.000000    2.859685
    4.Ag        0.000000    0.000000    5.603907
    5.Ag        0.778831    2.396994    1.462625
    6.Ag       -2.039005    1.481424    1.462625
    7.Ag       -2.039005   -1.481424    1.462625
    8.Ag        0.778831   -2.396994    1.462625
    9.Ag        2.476712    0.000000   -1.265555
   10.Ag        0.765346    2.355493   -1.265555
   11.Ag       -2.003702    1.455775   -1.265555
   12.Ag       -2.003702   -1.455775   -1.265555
   13.Ag        0.765346   -2.355493   -1.265555
   14.Ag        2.520349    0.000000    1.462625
   15.Ag        0.765874    2.357119    4.191589
   16.Ag       -2.005085    1.456779    4.191589
   17.Ag       -2.005085   -1.456779    4.191589
   18.Ag        0.765874   -2.357119    4.191589
   19.Ag        2.478421    0.000000    4.191589
 <Oct18-2020> <16:56:29>  >>>> CORORT
 <Oct18-2020> <16:56:29>  >>>> CLSMAT
 <Oct18-2020> <16:56:29>  >>>> ORTHON
 <Oct18-2020> <16:56:30>  >>>> GENPT
 <Oct18-2020> <16:56:30>  Acc.Num.Int.=   4.000
 <Oct18-2020> <16:56:30>  Block Length= 127
 <Oct18-2020> <16:56:30>  >>>> PTBAS
 <Oct18-2020> <16:56:31>  >>>> CYCLE
 <Oct18-2020> <16:56:35>              |Error|         MaxErr       Wt(A-DIIS)
 <Oct18-2020> <16:56:35>      1      0.15877336      0.02440701
 <Oct18-2020> <16:56:37>      2      0.00228218      0.00020838    100.0
 <Oct18-2020> <16:56:39>      3      0.00072869      0.00007698    100.0
 <Oct18-2020> <16:56:42>      4      0.00226153      0.00029108      0.0
 <Oct18-2020> <16:56:44>      5      0.00174859      0.00015428      0.0
 <Oct18-2020> <16:56:47>      6      0.00052916      0.00008914      0.0
 <Oct18-2020> <16:56:49>      7      0.00017892      0.00001720      0.0
 <Oct18-2020> <16:56:51>      8      0.00004578      0.00000593      0.0
 <Oct18-2020> <16:56:53>  SCF converged
 <Oct18-2020> <16:56:54>      9      0.00001144      0.00000103      0.0
 <Oct18-2020> <16:56:56>  >>>> TOTEN
 <Oct18-2020> <16:56:59>  >>>> POPAN
 <Oct18-2020> <16:56:59>  >>>> DEBYE
 <Oct18-2020> <16:57:00>  >>>> ENGRAD
 <Oct18-2020> <16:57:06>  current energy                               -1.17432583 Hartree
 <Oct18-2020> <16:57:06>  energy change                      -0.00005411     0.00100000    T
 <Oct18-2020> <16:57:06>  constrained gradient max            0.00092855     0.00100000    T
 <Oct18-2020> <16:57:06>  constrained gradient rms            0.00038790     0.00066667    T
 <Oct18-2020> <16:57:06>  gradient max                        0.00092855
 <Oct18-2020> <16:57:06>  gradient rms                        0.00038790
 <Oct18-2020> <16:57:06>  cart. step max                      0.00098579     0.01000000    T
 <Oct18-2020> <16:57:06>  cart. step rms                      0.00045782     0.00666667    T
 <Oct18-2020> <16:57:06>  GEOMETRY CONVERGED
 <Oct18-2020> <16:57:06>  Calculating Energy Terms for Final Geometry
  Coordinates in Geometry Cycle 7
    Atom         X           Y           Z   (Angstrom)
    1.Ag        0.000000    0.000000    0.067374
    2.Ag        0.000000    0.000000   -2.679954
    3.Ag        0.000000    0.000000    2.859685
    4.Ag        0.000000    0.000000    5.603907
    5.Ag        0.778831    2.396994    1.462625
    6.Ag       -2.039005    1.481424    1.462625
    7.Ag       -2.039005   -1.481424    1.462625
    8.Ag        0.778831   -2.396994    1.462625
    9.Ag        2.476712    0.000000   -1.265555
   10.Ag        0.765346    2.355493   -1.265555
   11.Ag       -2.003702    1.455775   -1.265555
   12.Ag       -2.003702   -1.455775   -1.265555
   13.Ag        0.765346   -2.355493   -1.265555
   14.Ag        2.520349    0.000000    1.462625
   15.Ag        0.765874    2.357119    4.191589
   16.Ag       -2.005085    1.456779    4.191589
   17.Ag       -2.005085   -1.456779    4.191589
   18.Ag        0.765874   -2.357119    4.191589
   19.Ag        2.478421    0.000000    4.191589
 <Oct18-2020> <16:57:06>  >>>> CORORT
 <Oct18-2020> <16:57:06>  >>>> CLSMAT
 <Oct18-2020> <16:57:06>  >>>> ORTHON
 <Oct18-2020> <16:57:06>  >>>> GENPT
 <Oct18-2020> <16:57:06>  Acc.Num.Int.=   4.000
 <Oct18-2020> <16:57:06>  Block Length= 127
 <Oct18-2020> <16:57:06>  >>>> PTBAS
 <Oct18-2020> <16:57:08>  >>>> CYCLE
 <Oct18-2020> <16:57:11>              |Error|         MaxErr       Wt(A-DIIS)
 <Oct18-2020> <16:57:11>      1      0.12091240      0.02222127
 <Oct18-2020> <16:57:13>      2      0.00000965      0.00000115    100.0
 <Oct18-2020> <16:57:15>  SCF converged
 <Oct18-2020> <16:57:15>      3      0.00000389      0.00000046    100.0
 <Oct18-2020> <16:57:17>  >>>> TOTEN
 <Oct18-2020> <16:57:27>  >>>> POPAN
 <Oct18-2020> <16:57:27>  >>>> DEBYE
 <Oct18-2020> <16:57:28>  >>>> AMETS
 <Oct18-2020> <16:57:28>  >>>> POPUL
 <Oct18-2020> <16:57:29>   Bond Energy          -1.17432584 a.u.
 <Oct18-2020> <16:57:29>   Bond Energy         -31.95503198 eV
 <Oct18-2020> <16:57:29>   Bond Energy        -736.90       kcal/mol
 <Oct18-2020> <16:57:29>  NORMAL TERMINATION with warnings
 <Oct18-2020> <16:57:29>  END
 <Nov03-2020> <09:36:33>  DIRAC 2018  RunTime: Nov03-2020 09:36:33  Nodes: 1  Procs: 1
 <Nov03-2020> <09:36:34>  NORMAL TERMINATION
 <Nov03-2020> <09:36:34>  END
 <Nov03-2020> <09:36:36>  ADF 2018  RunTime: Nov03-2020 09:36:36  Nodes: 1  Procs: 1
 <Nov03-2020> <09:36:36>  Silver (DZ, all electron)
 <Nov03-2020> <09:36:36>  RunType   : CREATE
 <Nov03-2020> <09:36:36>  Net Charge: 0 (Nuclei minus Electrons)
 <Nov03-2020> <09:36:36>  Symmetry  : ATOM
  Coordinates
    Atom         X           Y           Z   (Angstrom)
    1.Ag        0.000000    0.000000    0.000000
 <Nov03-2020> <09:36:36>  >>>> CORORT
 <Nov03-2020> <09:36:36>  >>>> CLSMAT
 <Nov03-2020> <09:36:36>  >>>> ORTHON
 <Nov03-2020> <09:36:36>  >>>> GENPT
 <Nov03-2020> <09:36:36>  Block Length=  90
 <Nov03-2020> <09:36:36>  >>>> PTBAS
 <Nov03-2020> <09:36:36>  >>>> CYCLE
 <Nov03-2020> <09:36:36>              |Error|         MaxErr       Wt(A-DIIS)
 <Nov03-2020> <09:36:37>      1      0.00000000      0.00000000
 <Nov03-2020> <09:36:37>      2    262.47705830     54.42466343    100.0
 <Nov03-2020> <09:36:37>      3    106.74749413     29.86783379    100.0
 <Nov03-2020> <09:36:37>      4     16.01081672      2.89289253    100.0
 <Nov03-2020> <09:36:37>      5     17.97394031      4.54914235    100.0
 <Nov03-2020> <09:36:37>      6      3.05643144      0.70739000    100.0
 <Nov03-2020> <09:36:37>      7      3.63239415      0.98831964    100.0
 <Nov03-2020> <09:36:37>      8      0.62032265      0.13428440    100.0
 <Nov03-2020> <09:36:37>      9      0.70874948      0.20452446    100.0
 <Nov03-2020> <09:36:37>     10      0.16905044      0.03553401     34.9
 <Nov03-2020> <09:36:37>     11      0.06522372      0.01869104     17.9
 <Nov03-2020> <09:36:37>     12      0.00505096      0.00169775      0.7
 <Nov03-2020> <09:36:37>     13      0.00006639      0.00002131      0.0
 <Nov03-2020> <09:36:37>     14      0.00000012      0.00000004      0.0
 <Nov03-2020> <09:36:37>     15      0.00000000      0.00000000      0.0
 <Nov03-2020> <09:36:37>  SCF converged
 <Nov03-2020> <09:36:37>     16      0.00000000      0.00000000      0.0
 <Nov03-2020> <09:36:38>  >>>> POPAN
 <Nov03-2020> <09:36:38>  >>>> DEBYE
 <Nov03-2020> <09:36:38>  NORMAL TERMINATION
 <Nov03-2020> <09:36:38>  END
 <Nov03-2020> <09:36:38>  WARNING: Input file parsing (see output).
 <Nov03-2020> <09:36:38>  ADF 2018  RunTime: Nov03-2020 09:36:38  Nodes: 1  Procs: 1
 <Nov03-2020> <09:36:38>  Ag34 pentagonal cluster d2h excitation
 <Nov03-2020> <09:36:38>  RunType   : SINGLE POINT
 <Nov03-2020> <09:36:38>  Net Charge: 1 (Nuclei minus Electrons)
 <Nov03-2020> <09:36:38>  Symmetry  : C(5V)
 <Nov03-2020> <09:36:38>  >>>> FRAGM
  Coordinates
    Atom         X           Y           Z   (Angstrom)
    1.Ag        0.000000    0.000000    0.056043
    2.Ag        0.000000    0.000000   -2.726717
    3.Ag        0.000000    0.000000    2.871948
    4.Ag        0.000000    0.000000    5.654591
    5.Ag        0.797901    2.455686    1.462466
    6.Ag       -2.088931    1.517697    1.462466
    7.Ag       -2.088931   -1.517697    1.462466
    8.Ag        0.797901   -2.455686    1.462466
    9.Ag        2.525475    0.000000   -1.295596
   10.Ag        0.780415    2.401869   -1.295596
   11.Ag       -2.043152    1.484437   -1.295596
   12.Ag       -2.043152   -1.484437   -1.295596
   13.Ag        0.780415   -2.401869   -1.295596
   14.Ag        2.582061    0.000000    1.462466
   15.Ag        0.780589    2.402404    4.220818
   16.Ag       -2.043607    1.484768    4.220818
   17.Ag       -2.043607   -1.484768    4.220818
   18.Ag        0.780589   -2.402404    4.220818
   19.Ag        2.526038    0.000000    4.220818
 <Nov03-2020> <09:36:39>  >>>> CORORT
 <Nov03-2020> <09:36:39>  >>>> CLSMAT
 <Nov03-2020> <09:36:39>  >>>> ORTHON
 <Nov03-2020> <09:36:39>  >>>> GENPT
 <Nov03-2020> <09:36:39>  Acc.Num.Int.=   6.000
 <Nov03-2020> <09:36:39>  Block Length= 128
 <Nov03-2020> <09:36:39>  >>>> PTBAS
 <Nov03-2020> <09:36:42>  >>>> CYCLE
 <Nov03-2020> <09:36:46>              |Error|         MaxErr       Wt(A-DIIS)
 <Nov03-2020> <09:36:46>      1     14.80638291      2.20831753
 <Nov03-2020> <09:37:02>      2     13.28064063      1.94086903    100.0
 <Nov03-2020> <09:37:18>      3     10.56227835      1.55039000    100.0
 <Nov03-2020> <09:37:33>      4      0.95408277      0.10142587    100.0
 <Nov03-2020> <09:37:49>      5      1.60053698      0.17889428    100.0
 <Nov03-2020> <09:38:05>      6      0.77495624      0.09764579     97.6
 <Nov03-2020> <09:38:21>      7      0.59038295      0.11081161    100.0
 <Nov03-2020> <09:38:36>      8      0.23694431      0.02862542     27.9
 <Nov03-2020> <09:38:53>      9      0.20834320      0.02598370     25.2
 <Nov03-2020> <09:39:09>     10      0.06985956      0.01400261     13.1
 <Nov03-2020> <09:39:25>     11      0.03140888      0.00622659      5.3
 <Nov03-2020> <09:39:40>     12      0.00344560      0.00049068      0.0
 <Nov03-2020> <09:39:56>     13      0.00160366      0.00029632      0.0
 <Nov03-2020> <09:40:12>     14      0.00079426      0.00016407      0.0
 <Nov03-2020> <09:40:28>     15      0.00018371      0.00003540      0.0
 <Nov03-2020> <09:40:44>     16      0.00006342      0.00000816      0.0
 <Nov03-2020> <09:41:00>     17      0.00001642      0.00000263      0.0
 <Nov03-2020> <09:41:15>     18      0.00000728      0.00000132      0.0
 <Nov03-2020> <09:41:32>     19      0.00000183      0.00000036      0.0
 <Nov03-2020> <09:41:48>     20      0.00000177      0.00000035      0.0
 <Nov03-2020> <09:42:04>     21      0.00000036      0.00000006      0.0
 <Nov03-2020> <09:42:05>  SCF converged
 <Nov03-2020> <09:42:20>     22      0.00000048      0.00000006      0.0
 <Nov03-2020> <09:42:22>  >>>> TOTEN
 <Nov03-2020> <09:42:39>  >>>> POPAN
 <Nov03-2020> <09:42:40>  >>>> DEBYE
 <Nov03-2020> <09:42:41>  >>>> AMETS
 <Nov03-2020> <09:42:41>   Bond Energy          -0.77705161 a.u.
 <Nov03-2020> <09:42:41>   Bond Energy         -21.14465012 eV
 <Nov03-2020> <09:42:41>   Bond Energy        -487.61       kcal/mol
 <Nov03-2020> <09:42:41>  >>>> POPUL
 <Nov03-2020> <09:42:42>  >>>> EXCITATIONS
 <Nov03-2020> <09:42:44>    SS   A1
 <Nov03-2020> <10:12:09>      Cycle:   2, MaxErr:  0.0624811
 <Nov03-2020> <10:14:21>      Cycle:   3, MaxErr:  0.0037125
 <Nov03-2020> <10:16:33>      Cycle:   4, MaxErr:  0.0012929
 <Nov03-2020> <10:18:45>      Cycle:   5, MaxErr:  0.0005647
 <Nov03-2020> <10:20:56>      Cycle:   6, MaxErr:  0.0002409
 <Nov03-2020> <10:23:06>      Cycle:   7, MaxErr:  0.0001888
 <Nov03-2020> <10:25:19>      Cycle:   8, MaxErr:  0.0000285
 <Nov03-2020> <10:27:29>      Cycle:   9, MaxErr:  0.0000071
 <Nov03-2020> <10:29:41>      Cycle:  10, MaxErr:  0.0000076
 <Nov03-2020> <10:31:48>      Cycle:  11, MaxErr:  0.0000068
 <Nov03-2020> <10:33:55>      Cycle:  12, MaxErr:  0.0000059
 <Nov03-2020> <10:36:02>      Cycle:  13, MaxErr:  0.0000029
 <Nov03-2020> <10:38:08>      Cycle:  14, MaxErr:  0.0000018
 <Nov03-2020> <10:40:15>      Cycle:  15, MaxErr:  0.0000014
 <Nov03-2020> <10:42:22>      Cycle:  16, MaxErr:  0.0000050
 <Nov03-2020> <10:44:27>      Cycle:  17, MaxErr:  0.0000022
 <Nov03-2020> <10:46:33>      Cycle:  18, MaxErr:  0.0000027
 <Nov03-2020> <10:48:40>      Cycle:  19, MaxErr:  0.0000009
 <Nov03-2020> <10:48:40>  Converged.
 <Nov03-2020> <11:05:18>    SS   E1
 <Nov03-2020> <12:45:46>      Cycle:   2, MaxErr:  0.0237274
 <Nov03-2020> <12:50:01>      Cycle:   3, MaxErr:  0.0083771
 <Nov03-2020> <12:54:18>      Cycle:   4, MaxErr:  0.0009221
 <Nov03-2020> <12:58:35>      Cycle:   5, MaxErr:  0.0004760
 <Nov03-2020> <13:02:51>      Cycle:   6, MaxErr:  0.0001146
 <Nov03-2020> <13:07:07>      Cycle:   7, MaxErr:  0.0000528
 <Nov03-2020> <13:11:24>      Cycle:   8, MaxErr:  0.0000243
 <Nov03-2020> <13:15:40>      Cycle:   9, MaxErr:  0.0000280
 <Nov03-2020> <13:19:56>      Cycle:  10, MaxErr:  0.0000131
 <Nov03-2020> <13:23:44>      Cycle:  11, MaxErr:  0.0000046
 <Nov03-2020> <13:27:18>      Cycle:  12, MaxErr:  0.0000023
 <Nov03-2020> <13:30:38>      Cycle:  13, MaxErr:  0.0000022
 <Nov03-2020> <13:33:59>      Cycle:  14, MaxErr:  0.0000008
 <Nov03-2020> <13:33:59>  Converged.
 <Nov03-2020> <13:54:47>  NORMAL TERMINATION with warnings
 <Nov03-2020> <13:54:47>  END
NORMAL TERMINATION with warnings
----- End of ADF execution -----
