
Inactive Modules:
  1) openblas/0.2.20     2) openmpi3

/var/spool/slurm/d/job5198174/slurm_script: line 27: /share/software/scisoft/ADF/adf2018.105/bin/openmpi/bin/mpiexec: No such file or directory
----- ADF execution script -----
This job is running on host compute-8-8.
Linux operating system at Fri Aug 14 22:01:54 EDT 2020.
----- ADF execution begins -----
----- ********************** -----


 *******************************************************************************
 *                                                                             *
 *  -------------------------------------                                      *
 *   Amsterdam Density Functional  (ADF)         2018                          *
 *  -------------------------------------                                      *
 *                                               r70630 2018-11-24             *
 *                                                                             *
 *                                                                             *
 *                            =====================                            *
 *                            |                   |                            *
 *                            |     D I R A C     |                            *
 *                            |                   |                            *
 *                            =====================                            *
 *                                                                             *
 *                                                                             *
 *   Online information and documentation:  https://www.scm.com/support/       *
 *   E-mail:  support@scm.com   info@scm.com                                   *
 *                                                                             *
 *   Scientific publications using ADF results must be properly referenced     *
 *   See the User Manuals (or the web site) for recommended citations          *
 *   The terms and conditions of the End User License Agreement apply to       *
 *   the use of ADF, https://www.scm.com/license-terms/                        *
 *                                                                             *
 **********************  x86_64_linux_intel / intelmpi  ************************
 
 Licensed to: Dr. Rebecca Gieseking / Brandeis University, Chemistry / Waltham / Massachusetts / USA
 SCM User ID: u20545
  
 DIRAC 2018  RunTime: Aug14-2020 22:01:54  Nodes: 1  Procs: 1

 Temporary files are created in /local_scratch/alvadillon/7142/kid_0.581712209

1
 SILVER ATOM all electron RELATIVISTIC, Point Nuc, A and c fr
 N J RN H ZN XION ANUC CLIGHT
 5000   15100.00000000197.36710137 47.00000000  0.00000000  106.905093  0.1370360E+03
  PH   PHI     EPS        DEL        DELRVR
  0.30  0.30     2500.00  0.00001000  0.00001000
 IDIRC  NC1  NDEBU NPRIN  IPUN IRCOR IWCOR
   1   300     0     0     0     0     0
   XALPHA      XLATTER      RNUC
  0.70000000  0.00000000  0.00000000 Point Charge
   XN   XL   XJ      XE          XZ      XDELL
  1.0  0.0  0.5   -1500.000       2.000     0.00000
  2.0  0.0  0.5    -325.000       2.000     0.00000
  2.0  1.0  0.5    -325.000       2.000     0.00000
  2.0  1.0  1.5    -325.000       4.000     0.00000
  3.0  0.0  0.5     -70.000       2.000     0.00000
  3.0  1.0  0.5     -70.000       2.000     0.00000
  3.0  1.0  1.5     -70.000       4.000     0.00000
  3.0  2.0  1.5     -60.000       4.000     0.00000
  3.0  2.0  2.5     -60.000       6.000     0.00000
  4.0  0.0  0.5     -10.000       2.000     0.00000
  4.0  1.0  0.5     -10.000       2.000     0.00000
  4.0  1.0  1.5     -10.000       4.000     0.00000
  4.0  2.0  1.5      -1.000       4.000     0.00000
  4.0  2.0  2.5      -1.000       6.000     0.00000
  5.0  0.0  0.5      -0.500       1.000     0.00000
 ICORP=  0  NPCL=  0  DEMP=0.00  PEPS=0.000000
 R(1)=  0.1000000E-08 D=  0.1005080E+01 RNUC=  0.0000000E+00
 converged at cycle   37  DENSITY AVERAGING    0.1536
  MAXIMUM ERROR IN R.V(R) IS   0.73266208E-05
 Q,EY,EV,EZ,ESUM,ETOT,RHO  0.470000E+02 -0.196167E+03 -0.876390E+04 -0.128962E+05 -0.319969E+04 -0.531488E+04  0.734901E-11


 DIRAC CALCULATION
1                    SILVER ATOM all electron RELATIVISTIC, Point Nuc, A and c from libtc


 EXCHANGE COEFFICIENT=  0.7000000           TAIL CORRECTION=  0.           NUCLEAR RADIUS=  0.000E+00
0                       ORBITAL    N    L    J     ELECTRONS     EIGENVALUE                DELTA OF EIGENV.

                          1S1/2  1.0  0.0  0.5     2.000       -0.9298445E+03                 0.2273092E-04
                          2S1/2  2.0  0.0  0.5     2.000       -0.1369628E+03                 0.3639498E-04
                          2P1/2  2.0  1.0  0.5     2.000       -0.1273849E+03                 0.3693015E-04
                          2P3/2  2.0  1.0  1.5     4.000       -0.1209397E+03                 0.3702741E-04
                          3S1/2  3.0  0.0  0.5     2.000       -0.2508734E+02                 0.1716513E-04
                          3P1/2  3.0  1.0  0.5     2.000       -0.2126622E+02                 0.1799299E-04
                          3P3/2  3.0  1.0  1.5     4.000       -0.2012758E+02                 0.1718269E-04
                          3D3/2  3.0  2.0  1.5     4.000       -0.1333155E+02                 0.2053383E-04
                          3D5/2  3.0  2.0  2.5     6.000       -0.1310170E+02                 0.2025648E-04
                          4S1/2  4.0  0.0  0.5     2.000       -0.3467319E+01                 0.6825767E-06
                          4P1/2  4.0  1.0  0.5     2.000       -0.2259901E+01                 0.4193830E-06
                          4P3/2  4.0  1.0  1.5     4.000       -0.2069785E+01                 0.2705207E-06
                          4D3/2  4.0  2.0  1.5     4.000       -0.2640772E+00                 0.3034642E-06
                          4D5/2  4.0  2.0  2.5     6.000       -0.2433402E+00                 0.3285318E-06
                          5S1/2  5.0  0.0  0.5     1.000       -0.1450750E+00                 0.2931480E-06


                                        NUCLEAR CHARGE=   47.000000
                            INTEGRAL OF CHARGE DENSITY=   47.000000
                           SUM OF THE ORBITAL ENERGIES=  -3199.6921
                                          TOTAL ENERGY=  -5314.8812
                                        KINETIC ENERGY=   5564.2055
                             NUCLEAR ATTRACTION ENERGY= -12896.1922
                             ELECTRON REPULSION ENERGY=   2164.2310
                                       EXCHANGE ENERGY=   -147.1255

 *******************************************************************************

                             D I R A C   E X I T
 NORMAL TERMINATION



 =================
 Timing Statistics
 =================
  
 Total Used :                     CPU=        0.34      System=        0.01     Elapsed=        0.40

 Calls  Section                     ( Mean, Percentage )
 ---------------------------------------------------------------------------------------------------
     2  ><      ................      0.00    0.00             0.00    0.07             0.00    0.00
     1  EXIT PROCEDURE .........      0.34  100.00             0.01   99.93             0.40  100.00


 Currently Open Files (EXIT00)
 ====================

 Unit    Access Format  Status   Type       Ident (file)
 -------------------------------------------------------
   3      SEQ    FORM   TRANSP  NORMAL      LOGFILE
                                          ( logfile )


 Buffered I/O statistics
 =======================
 Memory available:                     67108864
 Number of records fitting in memory:     16131
 Input : 100.0% of                            0  *4k bytes
 Output: 100.0% of                            0  *4k bytes
 Records from serial files evicted:           0
                    others evicted:           0
 Hash table lookups:          0 with          0 conflicts (100.00%)
NORMAL TERMINATION
 
Create Ag   file=DZ-Ag
XC
  GGA PW91
End
relativistic ZORA
Corepotentials t12.rel
End

 *******************************************************************************
 *                                                                             *
 *  -------------------------------------                                      *
 *   Amsterdam Density Functional  (ADF)         2018                          *
 *  -------------------------------------                                      *
 *                                               r70630 2018-11-24             *
 *                                                                             *
 *                                                                             *
 *                              =================                              *
 *                              |               |                              *
 *                              |     A D F     |                              *
 *                              |               |                              *
 *                              =================                              *
 *                                                                             *
 *                                                                             *
 *   Online information and documentation:  https://www.scm.com/support/       *
 *   E-mail:  support@scm.com   info@scm.com                                   *
 *                                                                             *
 *   Scientific publications using ADF results must be properly referenced     *
 *   See the User Manuals (or the web site) for recommended citations          *
 *   The terms and conditions of the End User License Agreement apply to       *
 *   the use of ADF, https://www.scm.com/license-terms/                        *
 *                                                                             *
 **********************  x86_64_linux_intel / intelmpi  ************************
 
 Licensed to: Dr. Rebecca Gieseking / Brandeis University, Chemistry / Waltham / Massachusetts / USA
 SCM User ID: u20545
  
 ADF 2018  RunTime: Aug14-2020 22:01:55  Nodes: 1  Procs: 1

 Temporary files are created in /local_scratch/alvadillon/7142/kid_0.1087071989

 Silver (DZ, all electron)



 ===========================
 A T T A C H E D   F I L E S
 ===========================
  
 CREATE - Data File:    DZ-Ag
                        Silver (DZ, all electron)
 Core Potentials:
         file : t12.rel



 ===============================
 M O D E L   P A R A M E T E R S
 ===============================
  
 DENSITY FUNCTIONAL POTENTIAL (scf)
    LDA:                               VWN                                      
    Gradient Corrections:              PW91x PW91c                             == Not Default ==

 SPIN  (restricted / unrestr.)
    Molecule:                          Restricted                               

 OTHER ASPECTS
    Relativistic Corrections:          scalar (ZORA,MAPA)                      == Not Default ==

    Nuclear Charge Density Model:      Point Charge Nuclei                      
    Core Treatment:                    Frozen Orbital(s)                        

    Hyperfine or Zeeman Interaction:   ---                                      



 =====================================
 S Y M M E T R Y ,   E L E C T R O N S
 =====================================
  
 Symmetry: ATOM

 Irreducible Representations, including subspecies
 -------------------------------------------------
 S
 P:x  P:y  P:z
 D:z2  D:x2-y2  D:xy  D:xz  D:yz
 F:z3  F:z  F:xyz  F:z2x  F:z2y  F:x  F:y


 Configuration of Valence Electrons
 ==================================

          Occupation Numbers
          -------------------------------------------------
 S        4*2 1
 P        3*6
 D        2*10
 F        0
          -------------------------------------------------

 Total:   47

 Net Charge: 0 (Nuclei minus Electrons)

 Preset values for MO occupations will be applied through SCF cycle no. 1000000
 Thereafter, the program will assign electrons to MOs that are spatially
 similar to the occupied MOs in a "reference" cycle ("KeepOrbitals").
 The reference cycle is always the PREVIOUS cycle: it will evolve with
 the SCF procedure.



 ================================
 (Slater-type)  F U N C T I O N S  ***  (Basis and Fit)  ***
 ================================
  

 Atom Type    1  (Ag)
 ==============

 Valence Basis Sets:  23
 -----------------------
   1 S  310.000000
   1 S   78.300000
   1 S   47.000000
   2 S   54.150000
   2 S   20.100000
   3 S   10.450000
   3 S    6.850000
   4 S    6.350000
   4 S    4.050000
   5 S    2.150000
   5 S    1.140000
   2 P   29.850000
   2 P   19.250000
   3 P   11.600000
   3 P    8.400000
   4 P    5.650000
   4 P    3.450000
   3 D   18.300000
   3 D   10.950000
   3 D    7.250000
   4 D    4.100000
   4 D    1.800000
   5 P    1.550000


 BAS: List of all Elementary Cartesian Basis Functions
 =====================================================

 The numbering in the list below (to the right of the function characteristics) is referred
 to in print-outs of MO eigenvectors and Mulliken populations in the BAS representation
 (as contrasted to the SFO representation).

 Notes:
 1. The functions are characterized by a polynomial prefactor (powers of x,y,z and r) and
    an exponential decay factor alpha.
 2. Since the basis sets are specific for an atom TYPE, the individual functions occur on
    all atoms of that type.
 3. The word 'Core' in the left margin signals that it is a Core Function (CF) : not a
    degree of freedom in the valence set, but only used to ensure orthogonalization of
    the other valence basis functions on the frozen Core Orbitals.


 (power of) X  Y  Z  R     Alpha  on Atom
            ==========     =====     ==========

 Ag                                   1
                                  ---------------------------------------------------------------------------
            0  0  0  0   310.000      1
            0  0  0  0    78.300      2
            0  0  0  0    47.000      3
            0  0  0  1    54.150      4
            0  0  0  1    20.100      5
            0  0  0  2    10.450      6
            0  0  0  2     6.850      7
            0  0  0  3     6.350      8
            0  0  0  3     4.050      9
            0  0  0  4     2.150     10
            0  0  0  4     1.140     11
            1  0  0  0    29.850     12
            0  1  0  0    29.850     13
            0  0  1  0    29.850     14
            1  0  0  0    19.250     15
            0  1  0  0    19.250     16
            0  0  1  0    19.250     17
            1  0  0  1    11.600     18
            0  1  0  1    11.600     19
            0  0  1  1    11.600     20
            1  0  0  1     8.400     21
            0  1  0  1     8.400     22
            0  0  1  1     8.400     23
            1  0  0  2     5.650     24
            0  1  0  2     5.650     25
            0  0  1  2     5.650     26
            1  0  0  2     3.450     27
            0  1  0  2     3.450     28
            0  0  1  2     3.450     29
            2  0  0  0    18.300     30
            1  1  0  0    18.300     31
            1  0  1  0    18.300     32
            0  2  0  0    18.300     33
            0  1  1  0    18.300     34
            0  0  2  0    18.300     35
            2  0  0  0    10.950     36
            1  1  0  0    10.950     37
            1  0  1  0    10.950     38
            0  2  0  0    10.950     39
            0  1  1  0    10.950     40
            0  0  2  0    10.950     41
            2  0  0  0     7.250     42
            1  1  0  0     7.250     43
            1  0  1  0     7.250     44
            0  2  0  0     7.250     45
            0  1  1  0     7.250     46
            0  0  2  0     7.250     47
            2  0  0  1     4.100     48
            1  1  0  1     4.100     49
            1  0  1  1     4.100     50
            0  2  0  1     4.100     51
            0  1  1  1     4.100     52
            0  0  2  1     4.100     53
            2  0  0  1     1.800     54
            1  1  0  1     1.800     55
            1  0  1  1     1.800     56
            0  2  0  1     1.800     57
            0  1  1  1     1.800     58
            0  0  2  1     1.800     59
            1  0  0  3     1.550     60
            0  1  0  3     1.550     61
            0  0  1  3     1.550     62

 Total number of charge fitting functions (nprimf)       237
 Total number of Cartesian basis functions (naos)         62
 Total number of Cartesian core functions  (ncos)          0



 BAS: List of all Elementary Cartesian Basis Functions
 =====================================================

 The numbering in the list below (to the right of the function characteristics) is referred
 to in print-outs of MO eigenvectors and Mulliken populations in the BAS representation
 (as contrasted to the SFO representation).

 Notes:
 1. The functions are characterized by a polynomial prefactor (powers of x,y,z and r) and
    an exponential decay factor alpha.
 2. Since the basis sets are specific for an atom TYPE, the individual functions occur on
    all atoms of that type.
 3. The word 'Core' in the left margin signals that it is a Core Function (CF) : not a
    degree of freedom in the valence set, but only used to ensure orthogonalization of
    the other valence basis functions on the frozen Core Orbitals.


 (power of) X  Y  Z  R     Alpha  on Atom
            ==========     =====     ==========

 Ag                                   1
                                  ---------------------------------------------------------------------------
            0  0  0  0   310.000      1
            0  0  0  0    78.300      2
            0  0  0  0    47.000      3
            0  0  0  1    54.150      4
            0  0  0  1    20.100      5
            0  0  0  2    10.450      6
            0  0  0  2     6.850      7
            0  0  0  3     6.350      8
            0  0  0  3     4.050      9
            0  0  0  4     2.150     10
            0  0  0  4     1.140     11
            1  0  0  0    29.850     12
            0  1  0  0    29.850     13
            0  0  1  0    29.850     14
            1  0  0  0    19.250     15
            0  1  0  0    19.250     16
            0  0  1  0    19.250     17
            1  0  0  1    11.600     18
            0  1  0  1    11.600     19
            0  0  1  1    11.600     20
            1  0  0  1     8.400     21
            0  1  0  1     8.400     22
            0  0  1  1     8.400     23
            1  0  0  2     5.650     24
            0  1  0  2     5.650     25
            0  0  1  2     5.650     26
            1  0  0  2     3.450     27
            0  1  0  2     3.450     28
            0  0  1  2     3.450     29
            2  0  0  0    18.300     30
            1  1  0  0    18.300     31
            1  0  1  0    18.300     32
            0  2  0  0    18.300     33
            0  1  1  0    18.300     34
            0  0  2  0    18.300     35
            2  0  0  0    10.950     36
            1  1  0  0    10.950     37
            1  0  1  0    10.950     38
            0  2  0  0    10.950     39
            0  1  1  0    10.950     40
            0  0  2  0    10.950     41
            2  0  0  0     7.250     42
            1  1  0  0     7.250     43
            1  0  1  0     7.250     44
            0  2  0  0     7.250     45
            0  1  1  0     7.250     46
            0  0  2  0     7.250     47
            2  0  0  1     4.100     48
            1  1  0  1     4.100     49
            1  0  1  1     4.100     50
            0  2  0  1     4.100     51
            0  1  1  1     4.100     52
            0  0  2  1     4.100     53
            2  0  0  1     1.800     54
            1  1  0  1     1.800     55
            1  0  1  1     1.800     56
            0  2  0  1     1.800     57
            0  1  1  1     1.800     58
            0  0  2  1     1.800     59
            1  0  0  3     1.550     60
            0  1  0  3     1.550     61
            0  0  1  3     1.550     62
1
 ***************************************************************************************************



                                              ***********************
                                              *  T E C H N I C A L  *
                                              ***********************
  



 =============================================================
 P A R A L L E L I Z A T I O N  and  V E C T O R I Z A T I O N
 =============================================================
  
 Nr of parallel processes:                                1
 Maximum vector length in NumInt loops:                 128

 IO buffersize (Mb):                                     64.000000



 =====================
 S C F   U P D A T E S
 =====================
  
 Max. nr. of cycles:                               300
 Convergence criterion:                              0.0000000100
   secondary criterion:                              0.0000000100

 Mix parameter (when DIIS does not apply):           0.2000000000
 Special mix parameter for the first cycle:          1.0000000000
 Mixed ADIIS+DIIS will be used
    Max number of expansion vectors:                10
    Pure ADIIS when Max([F,P]) is above              0.1000000000
    Pure DIIS when Max([F,P]) is below               0.0010000000
 Automatic ElectronSmearing (in case of problematic SCF convergence) disabled



 =================
 P R E C I S I O N  ***  (General: NumInt, NeglectFunctionTails, ...)  ***
 =================
  

 NumInt:           Target precision:                12.0000000000
 -------           Initial precision:               10.0000000000
                   Min. precision (optimization):   10.0000000000

 Neglect Functions:          Basis functions:        0.1000000000E-13
 ------------------          Fit functions:          0.1000000000E-13



 ===========================
 L I N E A R   S C A L I N G
 ===========================
  

 Cut-off radii density fit:                        0.1000000000E-97
 Overlap cut-off criterion AO matrix elements:     0.1000000000E-97
 Cut-offs for Coulomb potential and fitted density:0.1000000000E-97
 Cut-off criterion for Coulomb multipole terms:    0.1000000000E-97
 Progressive Convergence parameter:                 0.000000000    
1
 ***************************************************************************************************



                                            ***************************
                                            *  C O M P U T A T I O N  *
                                            ***************************
  

 Number of elements of the density matrix on this node (used, total):      1953      1953



 ===========================================
 Numerical Integration : Fuzzy Cells (Becke)
 ===========================================
  
 Becke grid quality: VERYGOOD       
  
 Lebedev angular grid order:             min:  13 max:  41
 Nr. of radial points:                   min: 179 max: 179

 Total nr. of points:        179
 Nr. of blocks:                2
 Block length:                90
 Nr. of dummy points:          1


 Test of Precision of the Numerical Integration Grid
 ===================================================

 Integral of the Total Core Density:                   0.00000000000000



 ========================
 Density Fitting (zlmFit)
 ========================
  
 ZlmFit Fit Quality: VERYGOOD       
  
 Max L-expansion:                        min:   0 max:   0
 Nr. of radial interpolation points:     min: 400 max: 400



 =====
 S C F  ***  ScaSCF  ***
 =====
  

 CYCLE    1
 SCF Error: norm([F,P])=      0.000000000000, max([F,P])=      0.000000000000
 orbitals (Q,E):
 ---------------
 S :1...11           ( 2.00 -1132.4771)  ( 2.00  -285.1632)  ( 2.00  -124.9697)  ( 2.00   -69.3358)
                     ( 1.00   -43.5723)  ( 0.00   -28.6089)  ( 0.00   -16.9613)  ( 0.00    -9.0016)
                     ( 0.00   400.0344)  ( 0.00  3841.3093)  ( 0.00 20022.8151)
 P :1...7            ( 6.00  -279.4963)  ( 6.00  -123.6657)  ( 6.00   -69.1171)  ( 0.00   -42.9866)
                     ( 0.00   -26.7531)  ( 0.00   -13.0494)  ( 0.00    97.1246)
 D :1...5            (10.00  -122.8307)  (10.00   -68.1198)  ( 0.00   -39.7115)  ( 0.00   -25.2168)
                     ( 0.00   -16.5312)

 CYCLE    2
  SDIIS (wt  0.000):  1.0000  0.0000
 A-DIIS (wt  1.000):  0.0000  1.0000
  DIIS coefficients:  0.0000  1.0000
 SCF Error: norm([F,P])=    262.477058304916, max([F,P])=     54.424663433406
 orbitals (Q,E):
 ---------------
 S :1...6            ( 2.00  -865.3650)  ( 2.00   -88.3994)  ( 2.00    -3.0223)  ( 2.00     0.0413)
                     ( 1.00     0.3672)  ( 0.00     2.3047)
 P :1...4            ( 6.00   -71.5558)  ( 6.00     0.0723)  ( 6.00     0.3578)  ( 0.00     2.3814)
 D :1...3            (10.00     0.7778)  (10.00     3.7363)  ( 0.00    10.6400)

 CYCLE    3
  SDIIS (wt  0.000):  0.1529  0.8471
 A-DIIS (wt  1.000):  0.4496  0.5504
  DIIS coefficients:  0.4496  0.5504
 SCF Error: norm([F,P])=    106.747494128457, max([F,P])=     29.867833793720
 orbitals (Q,E):
 ---------------
 S :1...6            ( 2.00  -931.6969)  ( 2.00  -142.1656)  ( 2.00   -31.8619)  ( 2.00    -7.8744)
                     ( 1.00    -1.6944)  ( 0.00    -0.1525)
 P :1...4            ( 6.00  -127.4939)  ( 6.00   -27.2263)  ( 6.00    -6.3333)  ( 0.00    -1.1483)
 D :1...3            (10.00   -20.1240)  (10.00    -3.9391)  ( 0.00    -0.3806)

 CYCLE    4
  SDIIS (wt  0.000):  0.0057  0.0176  0.9767
 A-DIIS (wt  1.000):  0.0000  0.0000  1.0000
  DIIS coefficients:  0.0000  0.0000  1.0000
 SCF Error: norm([F,P])=     16.010816723053, max([F,P])=      2.892892533276
 orbitals (Q,E):
 ---------------
 S :1...6            ( 2.00  -923.3299)  ( 2.00  -130.5387)  ( 2.00   -20.1824)  ( 2.00    -1.1438)
                     ( 1.00     0.0322)  ( 0.00     0.5011)
 P :1...4            ( 6.00  -116.3267)  ( 6.00   -15.5664)  ( 6.00    -0.1973)  ( 0.00     0.2932)
 D :1...3            (10.00    -8.1314)  (10.00     0.5393)  ( 0.00     2.2769)

 CYCLE    5
  SDIIS (wt  0.000):  0.0038 -0.0143  0.5407  0.4699
 A-DIIS (wt  1.000):  0.0000  0.0000  0.6645  0.3355
  DIIS coefficients:  0.0000  0.0000  0.6645  0.3355
 SCF Error: norm([F,P])=     17.973940307358, max([F,P])=      4.549142346868
 orbitals (Q,E):
 ---------------
 S :1...6            ( 2.00  -929.0271)  ( 2.00  -135.9821)  ( 2.00   -24.4317)  ( 2.00    -3.4211)
                     ( 1.00    -0.2109)  ( 0.00     0.1209)
 P :1...4            ( 6.00  -121.8502)  ( 6.00   -19.8208)  ( 6.00    -2.1324)  ( 0.00    -0.0170)
 D :1...3            (10.00   -12.4893)  (10.00    -0.3328)  ( 0.00     0.6803)

 CYCLE    6
  SDIIS (wt  0.000):  0.0010  0.0005  0.1115 -0.0846  0.9716
 A-DIIS (wt  1.000):  0.0000  0.0000  0.0000  0.0000  1.0000
  DIIS coefficients:  0.0000  0.0000  0.0000  0.0000  1.0000
 SCF Error: norm([F,P])=      3.056431444007, max([F,P])=      0.707390000645
 orbitals (Q,E):
 ---------------
 S :1...6            ( 2.00  -931.0997)  ( 2.00  -138.0993)  ( 2.00   -25.9303)  ( 2.00    -3.9059)
                     ( 1.00    -0.2136)  ( 0.00     0.0911)
 P :1...4            ( 6.00  -123.9873)  ( 6.00   -21.3229)  ( 6.00    -2.5356)  ( 0.00    -0.0250)
 D :1...3            (10.00   -14.0681)  (10.00    -0.5469)  ( 0.00     0.5658)

 CYCLE    7
  SDIIS (wt  0.000): -0.0003  0.0002  0.0104 -0.0069  0.5714  0.4251
 A-DIIS (wt  1.000):  0.0000  0.0000  0.0000  0.0000  0.6616  0.3384
  DIIS coefficients:  0.0000  0.0000  0.0000  0.0000  0.6616  0.3384
 SCF Error: norm([F,P])=      3.632394149511, max([F,P])=      0.988319637508
 orbitals (Q,E):
 ---------------
 S :1...6            ( 2.00  -930.0408)  ( 2.00  -137.1250)  ( 2.00   -25.2220)  ( 2.00    -3.5225)
                     ( 1.00    -0.1626)  ( 0.00     0.1229)
 P :1...4            ( 6.00  -122.9920)  ( 6.00   -20.6116)  ( 6.00    -2.1838)  ( 0.00     0.0060)
 D :1...3            (10.00   -13.3306)  (10.00    -0.2896)  ( 0.00     0.6843)

 CYCLE    8
  SDIIS (wt  0.000): -0.0001  0.0000  0.0101 -0.0032  0.1746 -0.0392  0.8578
 A-DIIS (wt  1.000):  0.0000  0.0000  0.0000  0.0000  0.0000  0.0000  1.0000
  DIIS coefficients:  0.0000  0.0000  0.0000  0.0000  0.0000  0.0000  1.0000
 SCF Error: norm([F,P])=      0.620322653306, max([F,P])=      0.134284395815
 orbitals (Q,E):
 ---------------
 S :1...6            ( 2.00  -929.5580)  ( 2.00  -136.7014)  ( 2.00   -24.9707)  ( 2.00    -3.4419)
                     ( 1.00    -0.1677)  ( 0.00     0.1231)
 P :1...4            ( 6.00  -122.5551)  ( 6.00   -20.3583)  ( 6.00    -2.1150)  ( 0.00    -0.0002)
 D :1...3            (10.00   -13.0606)  (10.00    -0.2539)  ( 0.00     0.7020)

 CYCLE    9
  SDIIS (wt  0.000): -0.0001  0.0001 -0.0057 -0.0033 -0.0119  0.1896 -0.0896  0.9209
 A-DIIS (wt  1.000):  0.0000  0.0000  0.0000  0.0000  0.0000  0.0000  0.7078  0.2922
  DIIS coefficients:  0.0000  0.0000  0.0000  0.0000  0.0000  0.0000  0.7078  0.2922
 SCF Error: norm([F,P])=      0.708749479233, max([F,P])=      0.204524464442
 orbitals (Q,E):
 ---------------
 S :1...6            ( 2.00  -929.7374)  ( 2.00  -136.8647)  ( 2.00   -25.0879)  ( 2.00    -3.5062)
                     ( 1.00    -0.1761)  ( 0.00     0.1169)
 P :1...4            ( 6.00  -122.7222)  ( 6.00   -20.4760)  ( 6.00    -2.1737)  ( 0.00    -0.0057)
 D :1...3            (10.00   -13.1826)  (10.00    -0.2942)  ( 0.00     0.6779)

 CYCLE   10
  SDIIS (wt  0.651): -0.0000 -0.0000 -0.0004 -0.0001  0.0080  0.0010  0.2390 -0.0018  0.7542
 A-DIIS (wt  0.349):  0.0000  0.0000  0.0000  0.0000  0.0000  0.0000  0.0000  0.0000  1.0000
  DIIS coefficients: -0.0000 -0.0000 -0.0003 -0.0000  0.0052  0.0007  0.1557 -0.0012  0.8400
 SCF Error: norm([F,P])=      0.169050438815, max([F,P])=      0.035534012943
 orbitals (Q,E):
 ---------------
 S :1...6            ( 2.00  -929.8315)  ( 2.00  -136.9430)  ( 2.00   -25.1293)  ( 2.00    -3.5179)
                     ( 1.00    -0.1754)  ( 0.00     0.1168)
 P :1...4            ( 6.00  -122.8037)  ( 6.00   -20.5179)  ( 6.00    -2.1837)  ( 0.00    -0.0048)
 D :1...3            (10.00   -13.2278)  (10.00    -0.2993)  ( 0.00     0.6753)

 CYCLE   11
  SDIIS (wt  0.821):  0.0000 -0.0000 -0.0000 -0.0000 -0.0007 -0.0023  0.0041  0.0720  0.0256  0.9012
 A-DIIS (wt  0.179):  0.0000  0.0000  0.0000  0.0000  0.0000  0.0000  0.0000  0.0000  0.2778  0.7222
  DIIS coefficients:  0.0000 -0.0000 -0.0000 -0.0000 -0.0006 -0.0019  0.0034  0.0591  0.0707  0.8693
 SCF Error: norm([F,P])=      0.065223719360, max([F,P])=      0.018691041837
 orbitals (Q,E):
 ---------------
 S :1...6            ( 2.00  -929.8068)  ( 2.00  -136.9211)  ( 2.00   -25.1146)  ( 2.00    -3.5102)
                     ( 1.00    -0.1744)  ( 0.00     0.1175)
 P :1...4            ( 6.00  -122.7812)  ( 6.00   -20.5030)  ( 6.00    -2.1767)  ( 0.00    -0.0041)
 D :1...3            (10.00   -13.2123)  (10.00    -0.2944)  ( 0.00     0.6781)

 CYCLE   12
  SDIIS (wt  0.993): -0.0000 -0.0000  0.0000 -0.0001  0.0002  0.0004 -0.0045  0.0380  0.0877  0.8785
 A-DIIS (wt  0.007):  0.0000  0.0000  0.0000  0.0000  0.0000  0.0000  0.0000  0.0000  0.0000  1.0000
  DIIS coefficients: -0.0000 -0.0000  0.0000 -0.0001  0.0002  0.0004 -0.0045  0.0377  0.0870  0.8793
 SCF Error: norm([F,P])=      0.005050959596, max([F,P])=      0.001697754820
 orbitals (Q,E):
 ---------------
 S :1...6            ( 2.00  -929.8078)  ( 2.00  -136.9222)  ( 2.00   -25.1157)  ( 2.00    -3.5111)
                     ( 1.00    -0.1745)  ( 0.00     0.1174)
 P :1...4            ( 6.00  -122.7823)  ( 6.00   -20.5042)  ( 6.00    -2.1775)  ( 0.00    -0.0042)
 D :1...3            (10.00   -13.2135)  (10.00    -0.2951)  ( 0.00     0.6778)

 CYCLE   13
  SDIIS (wt  1.000):  0.0000 -0.0000 -0.0000 -0.0000  0.0000  0.0001  0.0012  0.0046  0.0327  0.9615
  DIIS coefficients:  0.0000 -0.0000 -0.0000 -0.0000  0.0000  0.0001  0.0012  0.0046  0.0327  0.9615
 SCF Error: norm([F,P])=      0.000066387568, max([F,P])=      0.000021311364
 orbitals (Q,E):
 ---------------
 S :1...6            ( 2.00  -929.8078)  ( 2.00  -136.9222)  ( 2.00   -25.1157)  ( 2.00    -3.5111)
                     ( 1.00    -0.1745)  ( 0.00     0.1174)
 P :1...4            ( 6.00  -122.7823)  ( 6.00   -20.5042)  ( 6.00    -2.1775)  ( 0.00    -0.0042)
 D :1...3            (10.00   -13.2135)  (10.00    -0.2951)  ( 0.00     0.6778)

 CYCLE   14
  SDIIS (wt  1.000):  0.0000 -0.0000  0.0005  0.0464  0.9531
  DIIS coefficients:  0.0000 -0.0000  0.0005  0.0464  0.9531
 SCF Error: norm([F,P])=      0.000000115589, max([F,P])=      0.000000041185
 orbitals (Q,E):
 ---------------
 S :1...6            ( 2.00  -929.8078)  ( 2.00  -136.9222)  ( 2.00   -25.1157)  ( 2.00    -3.5111)
                     ( 1.00    -0.1745)  ( 0.00     0.1174)
 P :1...4            ( 6.00  -122.7823)  ( 6.00   -20.5042)  ( 6.00    -2.1775)  ( 0.00    -0.0042)
 D :1...3            (10.00   -13.2135)  (10.00    -0.2951)  ( 0.00     0.6778)

 CYCLE   15
  SDIIS (wt  1.000): -0.0000  0.0000 -0.0127  1.0127
  DIIS coefficients: -0.0000  0.0000 -0.0127  1.0127
 SCF Error: norm([F,P])=      0.000000000855, max([F,P])=      0.000000000224
 orbitals (Q,E):
 ---------------
 S :1...6            ( 2.00  -929.8078)  ( 2.00  -136.9222)  ( 2.00   -25.1157)  ( 2.00    -3.5111)
                     ( 1.00    -0.1745)  ( 0.00     0.1174)
 P :1...4            ( 6.00  -122.7823)  ( 6.00   -20.5042)  ( 6.00    -2.1775)  ( 0.00    -0.0042)
 D :1...3            (10.00   -13.2135)  (10.00    -0.2951)  ( 0.00     0.6778)

 SCF CONVERGED

 CYCLE   16
1
 ***************************************************************************************************



                                                *******************
                                                *  R E S U L T S  *
                                                *******************
  
 *** Setting up for NEW gradients in Focky
 *** Using FIT density in Focky

 Scaled ZORA Orbital Energies, per Irrep and Spin:
 =================================================
                        Occup              E (au)              E (eV)       Diff (eV) with prev. cycle
                        -----      --------------------        ------       --------------------------
 S
               1        2.000     -0.92980781351491E+03    -25301.358              -3.84E-10
               2        2.000     -0.13692218732367E+03     -3725.842              -3.00E-10
               3        2.000     -0.25115715375491E+02      -683.433              -3.65E-10
               4        2.000     -0.35111271473316E+01       -95.543              -2.75E-10
               5        1.000     -0.17454898401778E+00        -4.750              -2.18E-10
               6        0.000      0.11737491576661E+00         3.194
               7        0.000      0.24240892995404E+01        65.963
               8        0.000      0.20072560570778E+02       546.202
               9        0.000      0.56477860569117E+03     15368.408
              10        0.000      0.40112422556877E+04    109151.455
              11        0.000      0.20118883270165E+05    547462.669
 P
               1        6.000     -0.12278229434647E+03     -3341.076              -2.77E-10
               2        6.000     -0.20504193536566E+02      -557.947              -3.34E-10
               3        6.000     -0.21775009336032E+01       -59.253              -3.62E-10
               4        0.000     -0.42366030333389E-02        -0.115
               5        0.000      0.18117715145790E+01        49.301
               6        0.000      0.20122694371088E+02       547.566
               7        0.000      0.24139505118432E+03      6568.694
 D
               1       10.000     -0.13213467666992E+02      -359.557              -3.27E-10
               2       10.000     -0.29505919535616E+00        -8.029              -3.58E-10
               3        0.000      0.67777467533318E+00        18.443
               4        0.000      0.96977345267011E+01       263.889
               5        0.000      0.78350490298086E+02      2132.025


 Partially Occupied:
               5 S                -0.17454898401778E+00
  
 HOMO :        2 D                -0.29505919535616E+00
 LUMO :        4 P                -0.42366030333389E-02
  


 Orbital Energies, all Irreps
 ========================================

 Irrep        no.  (spin)   Occup              E (au)                E (eV)
 ---------------------------------------------------------------------------
 S             1             2.00       -0.92980781351491E+03    -25301.3579
 S             2             2.00       -0.13692218732367E+03     -3725.8423
 P             1             6.00       -0.12278229434647E+03     -3341.0762
 S             3             2.00       -0.25115715375491E+02      -683.4334
 P             2             6.00       -0.20504193536566E+02      -557.9475
 D             1            10.00       -0.13213467666992E+02      -359.5567
 S             4             2.00       -0.35111271473316E+01       -95.5426
 P             3             6.00       -0.21775009336032E+01       -59.2528
 D             2            10.00       -0.29505919535616E+00        -8.0290
 S             5             1.00       -0.17454898401778E+00        -4.7497
 P             4             0.00       -0.42366030333389E-02        -0.1153
 S             6             0.00        0.11737491576661E+00         3.1939
 D             3             0.00        0.67777467533318E+00        18.4432
 P             5             0.00        0.18117715145790E+01        49.3008
 S             7             0.00        0.24240892995404E+01        65.9628
 D             4             0.00        0.96977345267011E+01       263.8888
 S             8             0.00        0.20072560570778E+02       546.2022
 P             6             0.00        0.20122694371088E+02       547.5664
 D             5             0.00        0.78350490298086E+02      2132.0253
 P             7             0.00        0.24139505118432E+03      6568.6936
 S             9             0.00        0.56477860569117E+03     15368.4078
 S            10             0.00        0.40112422556877E+04    109151.4554
 S            11             0.00        0.20118883270165E+05    547462.6689


 All Electron Calculation, thus no Orbital Energies of the Core Orbitals are calculated



 =======================================
 M U L L I K E N   P O P U L A T I O N S
 =======================================
  
 The survey below gives for each atom:
 a) the total charge (Z minus electrons)
 b) the net spin polarization (nr of electrons spin-A minus spin-B)
 c) for each spin the atomic electron valence density (integrated) per L-value.

 Atom              Charge    Spin density          S         P         D         F
 ----              ------    ------------       ------    ------    ------    ------
 1 Ag              0.0000                       9.0000   18.0000   20.0000    0.0000

 Populations of individual BAS functions
 ----------------------------------------
 1 Ag           0.0070  0.2129  1.8910 -0.1972  2.0821  1.8558 -0.0711  1.4890  0.7619  0.6523
                0.3162  0.5106  0.5106  0.5106  1.4626  1.4626  1.4626  1.1702  1.1702  1.1702
                0.8485  0.8485  0.8485  1.2667  1.2667  1.2667  0.7413  0.7413  0.7413  0.1517
                0.2276  0.2276  0.1517  0.2276  0.1517  0.8045  1.2067  1.2067  0.8045  1.2067
                0.8045  0.4283  0.6424  0.6424  0.4283  0.6424  0.4283  0.8730  1.3095  1.3095
                0.8730  1.3095  0.8730  0.4092  0.6138  0.6138  0.4092  0.6138  0.4092  0.0001
                0.0001  0.0001

 Gross Charges per Atom (Z minus electrons)
 ==========================================
             0.0000
 Net Total:  0.00000000



 =======================================================================
 Electrostatic potential at the Nuclei due to electrons and other nuclei
 =======================================================================
  
         Atom                  Potential
         ----                  ---------
     1)   Ag                276.22204210
 
 
 ========================
 No memory problems found
 ========================
 
 Maximum number of active allocate calls:         379
 
 *******************************************************************************

                             A D F   E X I T
 NORMAL TERMINATION



 =================
 Timing Statistics
 =================
  
 Total Used :                     CPU=        1.39      System=        0.06     Elapsed=        2.04

 Calls  Section                     ( Mean, Percentage )
 ---------------------------------------------------------------------------------------------------
     3  ><      ................      0.00    0.26             0.00    0.90             0.00    0.37
     1  INIT    ................      0.04    2.59             0.01   11.45             0.50   24.76
     1  GEOMET  ................      0.02    1.43             0.02   27.75             0.05    2.22
     1  INPUTA  ................      0.00    0.19             0.00    3.24             0.01    0.27
     1  MAINSY  ................      0.01    0.82             0.00    0.02             0.02    0.96
     1  SYMFIT  ................      0.00    0.09             0.00    0.97             0.00    0.09
     1  CORORT  ................      0.00    0.03             0.00    0.87             0.00    0.13
     1  SYMORB  ................      0.00    0.06             0.00    0.00             0.00    0.04
     1  CLSMAT  ................      0.01    0.43             0.00    0.13             0.01    0.37
     1  ORTHON  ................      0.01    0.45             0.00    0.36             0.01    0.38
     1  GENPT   ................      0.02    1.68             0.00    1.00             0.03    1.33
     1  PTBAS   ................      0.01    0.42             0.00    0.58             0.01    0.38
    16  FOCKY   ................      0.07   81.05             0.00   33.47             0.08   59.63
    16  FOCKTR  ................      0.00    1.03             0.00    0.73             0.00    0.72
    16  SDIIS   ................      0.00    3.42             0.00    8.93             0.00    3.71
     1  COREPS  ................      0.06    4.16             0.00    3.35             0.06    2.95
     1  POPAN   ................      0.01    0.43             0.00    0.00             0.01    0.36
     1  DEBYE   ................      0.00    0.16             0.00    0.00             0.00    0.16
     1  EXIT PROCEDURE .........      0.02    1.30             0.00    6.23             0.02    1.18


 Currently Open Files (EXIT00)
 ====================

 Unit    Access Format  Status   Type       Ident (file)
 -------------------------------------------------------
   3      SEQ    FORM   TRANSP  NORMAL      LOGFILE
                                          ( logfile )


 Buffered I/O statistics
 =======================
 Memory available:                     67108864
 Number of records fitting in memory:     16131
 Input :   0.1% of                        23784  *4k bytes
 Output:  15.1% of                         1258  *4k bytes
 Records from serial files evicted:           0
                    others evicted:           0
 Hash table lookups:      52741 with          0 conflicts (  0.00%)

 ***************************************************************************************************
 (LOGFILE)
 <Aug14-2020> <21:45:20>  DIRAC 2018  RunTime: Aug14-2020 21:45:20  Nodes: 1  Procs: 1
 <Aug14-2020> <21:45:20>  NORMAL TERMINATION
 <Aug14-2020> <21:45:20>  END
 <Aug14-2020> <21:45:23>  ADF 2018  RunTime: Aug14-2020 21:45:23  Nodes: 1  Procs: 1
 <Aug14-2020> <21:45:23>  Silver (DZ, all electron)
 <Aug14-2020> <21:45:23>  RunType   : CREATE
 <Aug14-2020> <21:45:23>  Net Charge: 0 (Nuclei minus Electrons)
 <Aug14-2020> <21:45:23>  Symmetry  : ATOM
  Coordinates
    Atom         X           Y           Z   (Angstrom)
    1.Ag        0.000000    0.000000    0.000000
 <Aug14-2020> <21:45:23>  >>>> CORORT
 <Aug14-2020> <21:45:23>  >>>> CLSMAT
 <Aug14-2020> <21:45:23>  >>>> ORTHON
 <Aug14-2020> <21:45:23>  >>>> GENPT
 <Aug14-2020> <21:45:23>  Block Length=  90
 <Aug14-2020> <21:45:23>  >>>> PTBAS
 <Aug14-2020> <21:45:23>  >>>> CYCLE
 <Aug14-2020> <21:45:23>              |Error|         MaxErr       Wt(A-DIIS)
 <Aug14-2020> <21:45:23>      1      0.00000000      0.00000000
 <Aug14-2020> <21:45:23>      2    262.47638062     54.42603837    100.0
 <Aug14-2020> <21:45:23>      3    106.67133340     29.83568667    100.0
 <Aug14-2020> <21:45:23>      4     16.28982043      2.89834259    100.0
 <Aug14-2020> <21:45:23>      5     18.02196356      4.42125802    100.0
 <Aug14-2020> <21:45:23>      6      2.90078580      0.62505574    100.0
 <Aug14-2020> <21:45:23>      7      3.22674263      0.87022039    100.0
 <Aug14-2020> <21:45:23>      8      0.47565512      0.09235354     92.3
 <Aug14-2020> <21:45:24>      9      0.31943954      0.07354202     73.3
 <Aug14-2020> <21:45:24>     10      0.06564103      0.02219112     21.4
 <Aug14-2020> <21:45:24>     11      0.01392425      0.00468003      3.7
 <Aug14-2020> <21:45:24>     12      0.00108415      0.00035234      0.0
 <Aug14-2020> <21:45:24>     13      0.00000024      0.00000005      0.0
 <Aug14-2020> <21:45:24>     14      0.00000003      0.00000001      0.0
 <Aug14-2020> <21:45:24>  SCF converged
 <Aug14-2020> <21:45:24>     15      0.00000000      0.00000000      0.0
 <Aug14-2020> <21:45:24>  >>>> POPAN
 <Aug14-2020> <21:45:24>  >>>> DEBYE
 <Aug14-2020> <21:45:24>  NORMAL TERMINATION
 <Aug14-2020> <21:45:24>  END
 <Aug14-2020> <21:45:25>  WARNING: Input file parsing (see output).
 <Aug14-2020> <21:45:25>  ADF 2018  RunTime: Aug14-2020 21:45:25  Nodes: 1  Procs: 1
 <Aug14-2020> <21:45:25>  cluster optimization
 <Aug14-2020> <21:45:25>  RunType   : GEOMETRY OPTIMIZATION
 <Aug14-2020> <21:45:25>  Net Charge: 0 (Nuclei minus Electrons)
 <Aug14-2020> <21:45:25>  Symmetry  : D(LIN)
 <Aug14-2020> <21:45:25>  >>>> FRAGM
 <Aug14-2020> <21:45:25>  WARNING: Linear angle. Re-run optimization in Cartesian coordinates in case of convergence problems.
 <Aug14-2020> <21:45:25>  WARNING: Linear angle. Re-run optimization in Cartesian coordinates in case of convergence problems.
 <Aug14-2020> <21:45:25>  WARNING: Linear angle. Re-run optimization in Cartesian coordinates in case of convergence problems.
 <Aug14-2020> <21:45:25>  WARNING: Linear angle. Re-run optimization in Cartesian coordinates in case of convergence problems.
 <Aug14-2020> <21:45:25>  WARNING: Linear angle. Re-run optimization in Cartesian coordinates in case of convergence problems.
 <Aug14-2020> <21:45:25>  WARNING: Linear angle. Re-run optimization in Cartesian coordinates in case of convergence problems.
 <Aug14-2020> <21:45:25>  WARNING: Suspicious delocalized coordinates. Re-optimize in Cartesian coords in case of no convergence.
  Coordinates in Geometry Cycle 1
    Atom         X           Y           Z   (Angstrom)
    1.Ag        0.000000    0.000000   -1.340000
    2.Ag        0.000000    0.000000    1.340000
    3.Ag        0.000000    0.000000    4.020000
    4.Ag        0.000000    0.000000    6.700000
    5.Ag        0.000000    0.000000   -4.020000
    6.Ag        0.000000    0.000000    9.380000
    7.Ag        0.000000    0.000000   -6.700000
    8.Ag        0.000000    0.000000   -9.380000
 <Aug14-2020> <21:45:25>  >>>> CORORT
 <Aug14-2020> <21:45:25>  >>>> CLSMAT
 <Aug14-2020> <21:45:25>  >>>> ORTHON
 <Aug14-2020> <21:45:25>  >>>> GENPT
 <Aug14-2020> <21:45:25>  Acc.Num.Int.=   4.000
 <Aug14-2020> <21:45:25>  Block Length= 126
 <Aug14-2020> <21:45:25>  >>>> PTBAS
 <Aug14-2020> <21:45:25>  >>>> CYCLE
 <Aug14-2020> <21:45:26>              |Error|         MaxErr       Wt(A-DIIS)
 <Aug14-2020> <21:45:26>      1      4.80668047      0.82465511
 <Aug14-2020> <21:45:26>      2      0.22734096      0.02532058    100.0
 <Aug14-2020> <21:45:27>      3      0.11149756      0.01449019    100.0
 <Aug14-2020> <21:45:27>      4      0.20415140      0.02852600    100.0
 <Aug14-2020> <21:45:27>      5      0.05294878      0.00868709      7.8
 <Aug14-2020> <21:45:28>      6      0.02932578      0.00557433      4.6
 <Aug14-2020> <21:45:28>      7      0.01186654      0.00204639      1.1
 <Aug14-2020> <21:45:28>      8      0.00219871      0.00037838      0.0
 <Aug14-2020> <21:45:28>      9      0.00130780      0.00026230      0.0
 <Aug14-2020> <21:45:29>     10      0.00010082      0.00001905      0.0
 <Aug14-2020> <21:45:29>     11      0.00006767      0.00001082      0.0
 <Aug14-2020> <21:45:29>     12      0.00002581      0.00000423      0.0
 <Aug14-2020> <21:45:30>  SCF converged
 <Aug14-2020> <21:45:30>     13      0.00000560      0.00000083      0.0
 <Aug14-2020> <21:45:30>  >>>> TOTEN
 <Aug14-2020> <21:45:30>  >>>> POPAN
 <Aug14-2020> <21:45:30>  >>>> DEBYE
 <Aug14-2020> <21:45:31>  >>>> ENGRAD
 <Aug14-2020> <21:45:31>  current energy                               -0.38364188 Hartree
 <Aug14-2020> <21:45:31>  energy change                      -0.38364188     0.00100000    F
 <Aug14-2020> <21:45:31>  constrained gradient max            0.01586356     0.00100000    F
 <Aug14-2020> <21:45:31>  constrained gradient rms            0.00711381     0.00066667    F
 <Aug14-2020> <21:45:31>  gradient max                        0.01586356
 <Aug14-2020> <21:45:31>  gradient rms                        0.00711381
 <Aug14-2020> <21:45:31>  cart. step max                      0.01485147     0.01000000    F
 <Aug14-2020> <21:45:31>  cart. step rms                      0.00478521     0.00666667    T
  Coordinates in Geometry Cycle 2
    Atom         X           Y           Z   (Angstrom)
    1.Ag        0.000000    0.000000   -1.339901
    2.Ag        0.000000    0.000000    1.339901
    3.Ag        0.000000    0.000000    4.014337
    4.Ag        0.000000    0.000000    6.695296
    5.Ag        0.000000    0.000000   -4.014337
    6.Ag        0.000000    0.000000    9.365149
    7.Ag        0.000000    0.000000   -6.695296
    8.Ag        0.000000    0.000000   -9.365149
 <Aug14-2020> <21:45:31>  >>>> CORORT
 <Aug14-2020> <21:45:31>  >>>> CLSMAT
 <Aug14-2020> <21:45:31>  >>>> ORTHON
 <Aug14-2020> <21:45:31>  >>>> GENPT
 <Aug14-2020> <21:45:31>  Acc.Num.Int.=   4.000
 <Aug14-2020> <21:45:31>  Block Length= 126
 <Aug14-2020> <21:45:31>  >>>> PTBAS
 <Aug14-2020> <21:45:31>  >>>> CYCLE
 <Aug14-2020> <21:45:32>              |Error|         MaxErr       Wt(A-DIIS)
 <Aug14-2020> <21:45:32>      1      0.05853423      0.01364259
 <Aug14-2020> <21:45:32>      2      0.00232158      0.00033398    100.0
 <Aug14-2020> <21:45:32>      3      0.00105712      0.00018252    100.0
 <Aug14-2020> <21:45:33>      4      0.00225654      0.00042379      0.0
 <Aug14-2020> <21:45:33>      5      0.00083741      0.00015412      0.0
 <Aug14-2020> <21:45:33>      6      0.00058920      0.00010672      0.0
 <Aug14-2020> <21:45:33>      7      0.00010751      0.00001465      0.0
 <Aug14-2020> <21:45:34>      8      0.00002895      0.00000371      0.0
 <Aug14-2020> <21:45:34>  SCF converged
 <Aug14-2020> <21:45:34>      9      0.00001201      0.00000186      0.0
 <Aug14-2020> <21:45:34>  >>>> TOTEN
 <Aug14-2020> <21:45:35>  >>>> POPAN
 <Aug14-2020> <21:45:35>  >>>> DEBYE
 <Aug14-2020> <21:45:35>  >>>> ENGRAD
 <Aug14-2020> <21:45:35>  current energy                               -0.38398687 Hartree
 <Aug14-2020> <21:45:35>  energy change                      -0.00034499     0.00100000    T
 <Aug14-2020> <21:45:35>  constrained gradient max            0.01408862     0.00100000    F
 <Aug14-2020> <21:45:35>  constrained gradient rms            0.00633630     0.00066667    F
 <Aug14-2020> <21:45:35>  gradient max                        0.01408862
 <Aug14-2020> <21:45:35>  gradient rms                        0.00633630
 <Aug14-2020> <21:45:35>  cart. step max                      0.12028225     0.01000000    F
 <Aug14-2020> <21:45:35>  cart. step rms                      0.03882356     0.00666667    F
  Coordinates in Geometry Cycle 3
    Atom         X           Y           Z   (Angstrom)
    1.Ag        0.000000    0.000000   -1.339138
    2.Ag        0.000000    0.000000    1.339138
    3.Ag        0.000000    0.000000    3.968060
    4.Ag        0.000000    0.000000    6.656860
    5.Ag        0.000000    0.000000   -3.968060
    6.Ag        0.000000    0.000000    9.244866
    7.Ag        0.000000    0.000000   -6.656860
    8.Ag        0.000000    0.000000   -9.244866
 <Aug14-2020> <21:45:35>  >>>> CORORT
 <Aug14-2020> <21:45:35>  >>>> CLSMAT
 <Aug14-2020> <21:45:35>  >>>> ORTHON
 <Aug14-2020> <21:45:35>  >>>> GENPT
 <Aug14-2020> <21:45:35>  Acc.Num.Int.=   4.000
 <Aug14-2020> <21:45:35>  Block Length= 124
 <Aug14-2020> <21:45:35>  >>>> PTBAS
 <Aug14-2020> <21:45:35>  >>>> CYCLE
 <Aug14-2020> <21:45:36>              |Error|         MaxErr       Wt(A-DIIS)
 <Aug14-2020> <21:45:36>      1      0.51226435      0.12077593
 <Aug14-2020> <21:45:36>      2      0.01982985      0.00270691    100.0
 <Aug14-2020> <21:45:37>      3      0.00905537      0.00151661    100.0
 <Aug14-2020> <21:45:37>      4      0.01737253      0.00316654    100.0
 <Aug14-2020> <21:45:37>      5      0.00541878      0.00102063      0.0
 <Aug14-2020> <21:45:37>      6      0.00529020      0.00095329      0.0
 <Aug14-2020> <21:45:38>      7      0.00083074      0.00010858      0.0
 <Aug14-2020> <21:45:38>      8      0.00024854      0.00003255      0.0
 <Aug14-2020> <21:45:38>      9      0.00009836      0.00001533      0.0
 <Aug14-2020> <21:45:39>     10      0.00002034      0.00000375      0.0
 <Aug14-2020> <21:45:39>  SCF converged
 <Aug14-2020> <21:45:39>     11      0.00001614      0.00000347      0.0
 <Aug14-2020> <21:45:39>  >>>> TOTEN
 <Aug14-2020> <21:45:39>  >>>> POPAN
 <Aug14-2020> <21:45:39>  >>>> DEBYE
 <Aug14-2020> <21:45:40>  >>>> ENGRAD
 <Aug14-2020> <21:45:40>  current energy                               -0.38492267 Hartree
 <Aug14-2020> <21:45:40>  energy change                      -0.00093580     0.00100000    T
 <Aug14-2020> <21:45:40>  constrained gradient max            0.00337448     0.00100000    F
 <Aug14-2020> <21:45:40>  constrained gradient rms            0.00120412     0.00066667    F
 <Aug14-2020> <21:45:40>  gradient max                        0.00337448
 <Aug14-2020> <21:45:40>  gradient rms                        0.00120412
 <Aug14-2020> <21:45:40>  cart. step max                      0.02259119     0.01000000    F
 <Aug14-2020> <21:45:40>  cart. step rms                      0.00726639     0.00666667    F
  Coordinates in Geometry Cycle 4
    Atom         X           Y           Z   (Angstrom)
    1.Ag        0.000000    0.000000   -1.339515
    2.Ag        0.000000    0.000000    1.339515
    3.Ag        0.000000    0.000000    3.976264
    4.Ag        0.000000    0.000000    6.664330
    5.Ag        0.000000    0.000000   -3.976264
    6.Ag        0.000000    0.000000    9.267457
    7.Ag        0.000000    0.000000   -6.664330
    8.Ag        0.000000    0.000000   -9.267457
 <Aug14-2020> <21:45:40>  >>>> CORORT
 <Aug14-2020> <21:45:40>  >>>> CLSMAT
 <Aug14-2020> <21:45:40>  >>>> ORTHON
 <Aug14-2020> <21:45:40>  >>>> GENPT
 <Aug14-2020> <21:45:40>  Acc.Num.Int.=   4.000
 <Aug14-2020> <21:45:40>  Block Length= 123
 <Aug14-2020> <21:45:40>  >>>> PTBAS
 <Aug14-2020> <21:45:40>  >>>> CYCLE
 <Aug14-2020> <21:45:41>              |Error|         MaxErr       Wt(A-DIIS)
 <Aug14-2020> <21:45:41>      1      0.10081246      0.02449345
 <Aug14-2020> <21:45:41>      2      0.00334965      0.00046010    100.0
 <Aug14-2020> <21:45:42>      3      0.01103119      0.00188583    100.0
 <Aug14-2020> <21:45:42>      4      0.00392412      0.00057490      0.0
 <Aug14-2020> <21:45:42>      5      0.00108011      0.00018986      0.0
 <Aug14-2020> <21:45:42>      6      0.00081408      0.00014961      0.0
 <Aug14-2020> <21:45:43>      7      0.00011808      0.00001250      0.0
 <Aug14-2020> <21:45:43>      8      0.00005458      0.00000785      0.0
 <Aug14-2020> <21:45:43>  SCF converged
 <Aug14-2020> <21:45:43>      9      0.00001480      0.00000232      0.0
 <Aug14-2020> <21:45:44>  >>>> TOTEN
 <Aug14-2020> <21:45:44>  >>>> POPAN
 <Aug14-2020> <21:45:44>  >>>> DEBYE
 <Aug14-2020> <21:45:44>  >>>> ENGRAD
 <Aug14-2020> <21:45:45>  current energy                               -0.38504815 Hartree
 <Aug14-2020> <21:45:45>  energy change                      -0.00012547     0.00100000    T
 <Aug14-2020> <21:45:45>  constrained gradient max            0.00143266     0.00100000    F
 <Aug14-2020> <21:45:45>  constrained gradient rms            0.00057715     0.00066667    T
 <Aug14-2020> <21:45:45>  gradient max                        0.00143266
 <Aug14-2020> <21:45:45>  gradient rms                        0.00057715
 <Aug14-2020> <21:45:45>  cart. step max                      0.00070573     0.01000000    T
 <Aug14-2020> <21:45:45>  cart. step rms                      0.00028150     0.00666667    T
  Coordinates in Geometry Cycle 5
    Atom         X           Y           Z   (Angstrom)
    1.Ag        0.000000    0.000000   -1.339709
    2.Ag        0.000000    0.000000    1.339709
    3.Ag        0.000000    0.000000    3.975620
    4.Ag        0.000000    0.000000    6.664348
    5.Ag        0.000000    0.000000   -3.975620
    6.Ag        0.000000    0.000000    9.266752
    7.Ag        0.000000    0.000000   -6.664348
    8.Ag        0.000000    0.000000   -9.266752
 <Aug14-2020> <21:45:45>  >>>> CORORT
 <Aug14-2020> <21:45:45>  >>>> CLSMAT
 <Aug14-2020> <21:45:45>  >>>> ORTHON
 <Aug14-2020> <21:45:45>  >>>> GENPT
 <Aug14-2020> <21:45:45>  Acc.Num.Int.=   4.000
 <Aug14-2020> <21:45:45>  Block Length= 124
 <Aug14-2020> <21:45:45>  >>>> PTBAS
 <Aug14-2020> <21:45:45>  >>>> CYCLE
 <Aug14-2020> <21:45:45>              |Error|         MaxErr       Wt(A-DIIS)
 <Aug14-2020> <21:45:45>      1      0.00705304      0.00129250
 <Aug14-2020> <21:45:46>      2      0.00025699      0.00003990    100.0
 <Aug14-2020> <21:45:46>      3      0.00013212      0.00001797    100.0
 <Aug14-2020> <21:45:46>      4      0.00029420      0.00004753      0.0
 <Aug14-2020> <21:45:47>      5      0.00006641      0.00001162      0.0
 <Aug14-2020> <21:45:47>      6      0.00004451      0.00000782      0.0
 <Aug14-2020> <21:45:47>  SCF converged
 <Aug14-2020> <21:45:47>      7      0.00001090      0.00000138      0.0
 <Aug14-2020> <21:45:47>  >>>> TOTEN
 <Aug14-2020> <21:45:48>  >>>> POPAN
 <Aug14-2020> <21:45:48>  >>>> DEBYE
 <Aug14-2020> <21:45:48>  >>>> ENGRAD
 <Aug14-2020> <21:45:48>  current energy                               -0.38503156 Hartree
 <Aug14-2020> <21:45:48>  energy change                       0.00001658     0.00100000    T
 <Aug14-2020> <21:45:48>  constrained gradient max            0.00109546     0.00100000    F
 <Aug14-2020> <21:45:48>  constrained gradient rms            0.00043726     0.00066667    T
 <Aug14-2020> <21:45:48>  gradient max                        0.00109546
 <Aug14-2020> <21:45:48>  gradient rms                        0.00043726
 <Aug14-2020> <21:45:48>  cart. step max                      0.00163148     0.01000000    T
 <Aug14-2020> <21:45:48>  cart. step rms                      0.00071526     0.00666667    T
  Coordinates in Geometry Cycle 6
    Atom         X           Y           Z   (Angstrom)
    1.Ag        0.000000    0.000000   -1.340550
    2.Ag        0.000000    0.000000    1.340550
    3.Ag        0.000000    0.000000    3.974757
    4.Ag        0.000000    0.000000    6.665980
    5.Ag        0.000000    0.000000   -3.974757
    6.Ag        0.000000    0.000000    9.268175
    7.Ag        0.000000    0.000000   -6.665980
    8.Ag        0.000000    0.000000   -9.268175
 <Aug14-2020> <21:45:48>  >>>> CORORT
 <Aug14-2020> <21:45:48>  >>>> CLSMAT
 <Aug14-2020> <21:45:48>  >>>> ORTHON
 <Aug14-2020> <21:45:48>  >>>> GENPT
 <Aug14-2020> <21:45:48>  Acc.Num.Int.=   4.000
 <Aug14-2020> <21:45:48>  Block Length= 124
 <Aug14-2020> <21:45:49>  >>>> PTBAS
 <Aug14-2020> <21:45:49>  >>>> CYCLE
 <Aug14-2020> <21:45:49>              |Error|         MaxErr       Wt(A-DIIS)
 <Aug14-2020> <21:45:49>      1      0.01530611      0.00317749
 <Aug14-2020> <21:45:49>      2      0.00059955      0.00013431    100.0
 <Aug14-2020> <21:45:50>      3      0.00188578      0.00031719    100.0
 <Aug14-2020> <21:45:50>      4      0.00056315      0.00013519      0.0
 <Aug14-2020> <21:45:50>      5      0.00010667      0.00001690      0.0
 <Aug14-2020> <21:45:51>      6      0.00005168      0.00000880      0.0
 <Aug14-2020> <21:45:51>  SCF converged
 <Aug14-2020> <21:45:51>      7      0.00002475      0.00000494      0.0
 <Aug14-2020> <21:45:51>  >>>> TOTEN
 <Aug14-2020> <21:45:51>  >>>> POPAN
 <Aug14-2020> <21:45:51>  >>>> DEBYE
 <Aug14-2020> <21:45:52>  >>>> ENGRAD
 <Aug14-2020> <21:45:52>  current energy                               -0.38503522 Hartree
 <Aug14-2020> <21:45:52>  energy change                      -0.00000366     0.00100000    T
 <Aug14-2020> <21:45:52>  constrained gradient max            0.00040279     0.00100000    T
 <Aug14-2020> <21:45:52>  constrained gradient rms            0.00017102     0.00066667    T
 <Aug14-2020> <21:45:52>  gradient max                        0.00040279
 <Aug14-2020> <21:45:52>  gradient rms                        0.00017102
 <Aug14-2020> <21:45:52>  cart. step max                      0.00280296     0.01000000    T
 <Aug14-2020> <21:45:52>  cart. step rms                      0.00101846     0.00666667    T
 <Aug14-2020> <21:45:52>  GEOMETRY CONVERGED
 <Aug14-2020> <21:45:52>  Calculating Energy Terms for Final Geometry
  Coordinates in Geometry Cycle 6
    Atom         X           Y           Z   (Angstrom)
    1.Ag        0.000000    0.000000   -1.340550
    2.Ag        0.000000    0.000000    1.340550
    3.Ag        0.000000    0.000000    3.974757
    4.Ag        0.000000    0.000000    6.665980
    5.Ag        0.000000    0.000000   -3.974757
    6.Ag        0.000000    0.000000    9.268175
    7.Ag        0.000000    0.000000   -6.665980
    8.Ag        0.000000    0.000000   -9.268175
 <Aug14-2020> <21:45:52>  >>>> CORORT
 <Aug14-2020> <21:45:52>  >>>> CLSMAT
 <Aug14-2020> <21:45:52>  >>>> ORTHON
 <Aug14-2020> <21:45:52>  >>>> GENPT
 <Aug14-2020> <21:45:52>  Acc.Num.Int.=   4.000
 <Aug14-2020> <21:45:52>  Block Length= 124
 <Aug14-2020> <21:45:52>  >>>> PTBAS
 <Aug14-2020> <21:45:52>  >>>> CYCLE
 <Aug14-2020> <21:45:53>              |Error|         MaxErr       Wt(A-DIIS)
 <Aug14-2020> <21:45:53>      1      0.00000802      0.00000133
 <Aug14-2020> <21:45:53>      2      0.00002462      0.00000560    100.0
 <Aug14-2020> <21:45:53>  SCF converged
 <Aug14-2020> <21:45:53>      3      0.00000588      0.00000085    100.0
 <Aug14-2020> <21:45:54>  >>>> TOTEN
 <Aug14-2020> <21:45:54>  >>>> POPAN
 <Aug14-2020> <21:45:54>  >>>> DEBYE
 <Aug14-2020> <21:45:55>  >>>> AMETS
 <Aug14-2020> <21:45:55>  >>>> POPUL
 <Aug14-2020> <21:45:55>   Bond Energy          -0.38503523 a.u.
 <Aug14-2020> <21:45:55>   Bond Energy         -10.47734165 eV
 <Aug14-2020> <21:45:55>   Bond Energy        -241.61       kcal/mol
 <Aug14-2020> <21:45:55>  NORMAL TERMINATION with warnings
 <Aug14-2020> <21:45:55>  END
 <Aug14-2020> <22:01:54>  DIRAC 2018  RunTime: Aug14-2020 22:01:54  Nodes: 1  Procs: 1
 <Aug14-2020> <22:01:54>  NORMAL TERMINATION
 <Aug14-2020> <22:01:54>  END
 <Aug14-2020> <22:01:55>  ADF 2018  RunTime: Aug14-2020 22:01:55  Nodes: 1  Procs: 1
 <Aug14-2020> <22:01:55>  Silver (DZ, all electron)
 <Aug14-2020> <22:01:55>  RunType   : CREATE
 <Aug14-2020> <22:01:55>  Net Charge: 0 (Nuclei minus Electrons)
 <Aug14-2020> <22:01:55>  Symmetry  : ATOM
  Coordinates
    Atom         X           Y           Z   (Angstrom)
    1.Ag        0.000000    0.000000    0.000000
 <Aug14-2020> <22:01:55>  >>>> CORORT
 <Aug14-2020> <22:01:55>  >>>> CLSMAT
 <Aug14-2020> <22:01:55>  >>>> ORTHON
 <Aug14-2020> <22:01:55>  >>>> GENPT
 <Aug14-2020> <22:01:55>  Block Length=  90
 <Aug14-2020> <22:01:55>  >>>> PTBAS
 <Aug14-2020> <22:01:55>  >>>> CYCLE
 <Aug14-2020> <22:01:56>              |Error|         MaxErr       Wt(A-DIIS)
 <Aug14-2020> <22:01:56>      1      0.00000000      0.00000000
 <Aug14-2020> <22:01:56>      2    262.47705830     54.42466343    100.0
 <Aug14-2020> <22:01:56>      3    106.74749413     29.86783379    100.0
 <Aug14-2020> <22:01:56>      4     16.01081672      2.89289253    100.0
 <Aug14-2020> <22:01:56>      5     17.97394031      4.54914235    100.0
 <Aug14-2020> <22:01:56>      6      3.05643144      0.70739000    100.0
 <Aug14-2020> <22:01:56>      7      3.63239415      0.98831964    100.0
 <Aug14-2020> <22:01:56>      8      0.62032265      0.13428440    100.0
 <Aug14-2020> <22:01:56>      9      0.70874948      0.20452446    100.0
 <Aug14-2020> <22:01:56>     10      0.16905044      0.03553401     34.9
 <Aug14-2020> <22:01:56>     11      0.06522372      0.01869104     17.9
 <Aug14-2020> <22:01:56>     12      0.00505096      0.00169775      0.7
 <Aug14-2020> <22:01:56>     13      0.00006639      0.00002131      0.0
 <Aug14-2020> <22:01:56>     14      0.00000012      0.00000004      0.0
 <Aug14-2020> <22:01:56>     15      0.00000000      0.00000000      0.0
 <Aug14-2020> <22:01:56>  SCF converged
 <Aug14-2020> <22:01:57>     16      0.00000000      0.00000000      0.0
 <Aug14-2020> <22:01:57>  >>>> POPAN
 <Aug14-2020> <22:01:57>  >>>> DEBYE
 <Aug14-2020> <22:01:57>  NORMAL TERMINATION
 <Aug14-2020> <22:01:57>  END
NORMAL TERMINATION


 Parallel Execution: Process Information
 ==============================================================================
 Rank   Node Name                              NodeID   MyNodeRank  NodeMaster
    0   compute-8-8                               0          0          0
 ==============================================================================


 
title Ag34 pentagonal cluster d2h excitation

RELATIVISTIC ZORA

SCF
 Converge 1e-7
 Iterations 300
END

INTEGRATION 6.0

CHARGE 0

XC
  model SAOP
END

::GEOMETRY
:: converge E=1e-4 grad=1e-3
:: iterations 100
:: frequencies
::END

EXCITATIONS
 allowed
 kfwrite 3
 ONLYSING
 lowest 1500
 tolerance 1e-6
 orthonormality 1e-8
end

PRINT DIPOLEMAT
PRINT SFO

Atoms
    Ag        0.000000    0.000000   -1.340550
    Ag        0.000000    0.000000    1.340550
    Ag        0.000000    0.000000    3.974757
    Ag        0.000000    0.000000    6.665980
    Ag        0.000000    0.000000   -3.974757
    Ag        0.000000    0.000000    9.268175
    Ag        0.000000    0.000000   -6.665980
    Ag        0.000000    0.000000   -9.268175
End

Fragments
Ag t21.Ag
End
WARNING: Input file parsing. Old input format detected (ADF2017 or older).
Converted input file:

title Ag34 pentagonal cluster d2h excitation
RELATIVISTIC ZORA
SCF
 Converge 1e-7
 Iterations 300
END
Integration
   Accint 6.0
End
CHARGE 0
XC
  model SAOP
END
EXCITATIONS
 allowed
 kfwrite 3
 ONLYSING
 lowest 1500
 tolerance 1e-6
 orthonormality 1e-8
end
PRINT DIPOLEMAT
PRINT SFO
Atoms
    Ag        0.000000    0.000000   -1.340550
    Ag        0.000000    0.000000    1.340550
    Ag        0.000000    0.000000    3.974757
    Ag        0.000000    0.000000    6.665980
    Ag        0.000000    0.000000   -3.974757
    Ag        0.000000    0.000000    9.268175
    Ag        0.000000    0.000000   -6.665980
    Ag        0.000000    0.000000   -9.268175
End
Fragments
Ag t21.Ag
End

 *******************************************************************************
 *                                                                             *
 *  -------------------------------------                                      *
 *   Amsterdam Density Functional  (ADF)         2018                          *
 *  -------------------------------------                                      *
 *                                               r70630 2018-11-24             *
 *                                                                             *
 *                                                                             *
 *                              =================                              *
 *                              |               |                              *
 *                              |     A D F     |                              *
 *                              |               |                              *
 *                              =================                              *
 *                                                                             *
 *                                                                             *
 *   Online information and documentation:  https://www.scm.com/support/       *
 *   E-mail:  support@scm.com   info@scm.com                                   *
 *                                                                             *
 *   Scientific publications using ADF results must be properly referenced     *
 *   See the User Manuals (or the web site) for recommended citations          *
 *   The terms and conditions of the End User License Agreement apply to       *
 *   the use of ADF, https://www.scm.com/license-terms/                        *
 *                                                                             *
 **********************  x86_64_linux_intel / intelmpi  ************************
 
 Licensed to: Dr. Rebecca Gieseking / Brandeis University, Chemistry / Waltham / Massachusetts / USA
 SCM User ID: u20545
  
 ADF 2018  RunTime: Aug14-2020 22:01:57  Nodes: 1  Procs: 1

 Temporary files are created in /local_scratch/alvadillon/7142/kid_0.1064587954

 Ag34 pentagonal cluster d2h excitation



 ===========================
 A T T A C H E D   F I L E S
 ===========================
  



 ===============================
 M O D E L   P A R A M E T E R S
 ===============================
  


 DENSITY FUNCTIONAL POTENTIAL (scf)
    LDA:                               VWN                                      
    Gradient Corrections:              SAOP                                    == Not Default ==

 SPIN  (restricted / unrestr.)
    Molecule:                          Restricted                               
    Fragments:                         Restricted                               

 OTHER ASPECTS
    Relativistic Corrections:          scalar (ZORA,MAPA)                      == Not Default ==

    Nuclear Charge Density Model:      Point Charge Nuclei                      
    Core Treatment:                    Frozen Orbital(s)                        

    Hyperfine or Zeeman Interaction:   ---                                      


 Fragment File(s)
 ----------------
 Ag:
         file : t21.Ag
         jobid: ADF 2018  RunTime: Aug14-2020 22:01:55  Nodes: 1  Procs: 1
         title: Silver (DZ, all electron)



                                        ************************************
                                        *  R U N   T Y P E : SINGLE POINT  *
                                        ************************************
  



 ===============
 G E O M E T R Y  ***  Linear Molecule  ***
 ===============
  

 ATOMS
 =====                            X Y Z                    CHARGE
                                (Angstrom)             Nucl     +Core       At.Mass
                       --------------------------    ----------------       -------
    1  Ag              0.0000    0.0000   -1.3405     47.00     47.00      106.9051
    2  Ag              0.0000    0.0000    1.3405     47.00     47.00      106.9051
    3  Ag              0.0000    0.0000    3.9748     47.00     47.00      106.9051
    4  Ag              0.0000    0.0000    6.6660     47.00     47.00      106.9051
    5  Ag              0.0000    0.0000   -3.9748     47.00     47.00      106.9051
    6  Ag              0.0000    0.0000    9.2682     47.00     47.00      106.9051
    7  Ag              0.0000    0.0000   -6.6660     47.00     47.00      106.9051
    8  Ag              0.0000    0.0000   -9.2682     47.00     47.00      106.9051


 FRAGMENTS
 =========                                     Atoms in this Fragment     Cart. coord.s (Angstrom)
                                               -------------------------------------------------------
    1  Ag                                                1  Ag           0.0000    0.0000   -1.3405
    2  Ag                                                2  Ag           0.0000    0.0000    1.3405
    3  Ag                                                3  Ag           0.0000    0.0000    3.9748
    4  Ag                                                4  Ag           0.0000    0.0000    6.6660
    5  Ag                                                5  Ag           0.0000    0.0000   -3.9748
    6  Ag                                                6  Ag           0.0000    0.0000    9.2682
    7  Ag                                                7  Ag           0.0000    0.0000   -6.6660
    8  Ag                                                8  Ag           0.0000    0.0000   -9.2682


 Interatomic Distance Matrix (Angstrom)
 --------------------------------------

   1)     0.000
   2)     2.681   0.000
   3)     5.315   2.634   0.000
   4)     8.007   5.325   2.691   0.000
   5)     2.634   5.315   7.950  10.641   0.000
   6)    10.609   7.928   5.293   2.602  13.243   0.000
   7)     5.325   8.007  10.641  13.332   2.691  15.934   0.000
   8)     7.928  10.609  13.243  15.934   5.293  18.536   2.602   0.000

 Min. Distance =    2.6022
 Max. Distance =   18.5363



 =====================================
 S Y M M E T R Y ,   E L E C T R O N S
 =====================================
  
 Symmetry: D(7D)

 Irreducible Representations, including subspecies
 -------------------------------------------------
 A1.g
 A2.g
 E1.g:1  E1.g:2
 E2.g:1  E2.g:2
 E3.g:1  E3.g:2
 A1.u
 A2.u
 E1.u:1  E1.u:2
 E2.u:1  E2.u:2
 E3.u:1  E3.u:2


 Configuration of Valence Electrons
 ==================================
 ( determined in the SCF procedure )

 Total:   376

 Net Charge: 0 (Nuclei minus Electrons)

 Aufbau principle for MO occupations will be applied through SCF cycle no.     150
 Thereafter, the program will assign electrons to MOs that are spatially
 similar to the occupied MOs in a "reference" cycle ("KeepOrbitals").
 The reference cycle is always the PREVIOUS cycle: it will evolve with
 the SCF procedure.
1
 ***************************************************************************************************



                                      ****************************************
                                      *  B U I L D : (Fragments, Functions)  *
                                      ****************************************
  



 =======
 S F O s  ***  (Symmetrized Fragment Orbitals)  ***
 =======
  
 SFOs are linear combinations of (valence) Fragment Orbitals (FOs), such that the SFOs transform as the
 irreducible representations of the (molecular) symmetry group. Each SFO is therefore characterized by
 an irrep of the molecule and by a few (or only one) generating FOs.
 The SFOs constitute a symmetry-adapted basis for the Fock matrix. The MO eigenvector coefficients in
 this basis provide a direct interpretation of the MOs in terms of Frontier Orbital Theory.

 The SFOs are combined with auxiliary Core Functions (CFs) to ensure orthogonalization on the (frozen)
 Core Orbitals (COs). The Core-orthogonalized SFOs (CSFOs) constitute the true Fock basis.

 The FOs, and hence also the (C)SFOs are combinations of the elementary basis functions (BAS). The basis
 functions that participate in the description of the SFOs depend on the irrep. The indices of the
 involved functions are printed below for each irrep.
 (The complete list of primitive basis functions is printed in another section)

 Total nr. of (C)SFOs (summation over all irreps) :   456

 NOTE: a (C)SFO that is defined as a combination of more than one FO is usually NOT normalized.



                                       === A1.g ===
 Nr. of SFOs :   92
 Cartesian basis functions that participate in this irrep (total number =   264) :
      1    63     2    64     3    65     4    66     5    67
      6    68     7    69     8    70     9    71    10    72
     11    73    14    76    17    79    20    82    23    85
     26    88    29    91    62   124    35    97    41   103
     47   109    53   115    59   121    30    33    92    95
     36    39    98   101    42    45   104   107    48    51
    110   113    54    57   116   119   125   249   126   250
    127   251   128   252   129   253   130   254   131   255
    132   256   133   257   134   258   135   259   138   262
    141   265   144   268   147   271   150   274   153   277
    186   310   159   283   165   289   171   295   177   301
    183   307   154   157   278   281   160   163   284   287
    166   169   290   293   172   175   296   299   178   181
    302   305   187   373   188   374   189   375   190   376
    191   377   192   378   193   379   194   380   195   381
    196   382   197   383   200   386   203   389   206   392
    209   395   212   398   215   401   248   434   221   407
    227   413   233   419   239   425   245   431   216   219
    402   405   222   225   408   411   228   231   414   417
    234   237   420   423   240   243   426   429   311   435
    312   436   313   437   314   438   315   439   316   440
    317   441   318   442   319   443   320   444   321   445
    324   448   327   451   330   454   333   457   336   460
    339   463   372   496   345   469   351   475   357   481
    363   487   369   493   340   343   464   467   346   349
    470   473   352   355   476   479   358   361   482   485
    364   367   488   491

    SFO  (index         Fragment          Generating    Expansion in Fragment Orbitals
  indx  incl.CFs)   Occup   Orb.Energy   FragmentType  Coeff.   Orbital     on Fragment
 --------------------------------------------------------------------------------------
     1       1      2.000    -929.808 au  Ag            0.71      1 S               1
                        (  -25301.358 eV)               0.71      1 S               2
     2       2      2.000    -136.922 au  Ag            0.71      2 S               1
                        (   -3725.842 eV)               0.71      2 S               2
     3       3      2.000     -25.116 au  Ag            0.71      3 S               1
                        (    -683.433 eV)               0.71      3 S               2
     4       4      2.000      -3.511 au  Ag            0.71      4 S               1
                        (     -95.543 eV)               0.71      4 S               2
     5       5      1.000      -0.175 au  Ag            0.71      5 S               1
                        (      -4.750 eV)               0.71      5 S               2
     6       6       --         0.117 au  Ag            0.71      6 S               1
                        (       3.194 eV)               0.71      6 S               2
     7       7       --         2.424 au  Ag            0.71      7 S               1
                        (      65.963 eV)               0.71      7 S               2
     8       8       --        20.073 au  Ag            0.71      8 S               1
                        (     546.202 eV)               0.71      8 S               2
[...]
 <Aug14-2020> <21:45:31>  >>>> CYCLE
 <Aug14-2020> <21:45:32>              |Error|         MaxErr       Wt(A-DIIS)
 <Aug14-2020> <21:45:32>      1      0.05853423      0.01364259
 <Aug14-2020> <21:45:32>      2      0.00232158      0.00033398    100.0
 <Aug14-2020> <21:45:32>      3      0.00105712      0.00018252    100.0
 <Aug14-2020> <21:45:33>      4      0.00225654      0.00042379      0.0
 <Aug14-2020> <21:45:33>      5      0.00083741      0.00015412      0.0
 <Aug14-2020> <21:45:33>      6      0.00058920      0.00010672      0.0
 <Aug14-2020> <21:45:33>      7      0.00010751      0.00001465      0.0
 <Aug14-2020> <21:45:34>      8      0.00002895      0.00000371      0.0
 <Aug14-2020> <21:45:34>  SCF converged
 <Aug14-2020> <21:45:34>      9      0.00001201      0.00000186      0.0
 <Aug14-2020> <21:45:34>  >>>> TOTEN
 <Aug14-2020> <21:45:35>  >>>> POPAN
 <Aug14-2020> <21:45:35>  >>>> DEBYE
 <Aug14-2020> <21:45:35>  >>>> ENGRAD
 <Aug14-2020> <21:45:35>  current energy                               -0.38398687 Hartree
 <Aug14-2020> <21:45:35>  energy change                      -0.00034499     0.00100000    T
 <Aug14-2020> <21:45:35>  constrained gradient max            0.01408862     0.00100000    F
 <Aug14-2020> <21:45:35>  constrained gradient rms            0.00633630     0.00066667    F
 <Aug14-2020> <21:45:35>  gradient max                        0.01408862
 <Aug14-2020> <21:45:35>  gradient rms                        0.00633630
 <Aug14-2020> <21:45:35>  cart. step max                      0.12028225     0.01000000    F
 <Aug14-2020> <21:45:35>  cart. step rms                      0.03882356     0.00666667    F
  Coordinates in Geometry Cycle 3
    Atom         X           Y           Z   (Angstrom)
    1.Ag        0.000000    0.000000   -1.339138
    2.Ag        0.000000    0.000000    1.339138
    3.Ag        0.000000    0.000000    3.968060
    4.Ag        0.000000    0.000000    6.656860
    5.Ag        0.000000    0.000000   -3.968060
    6.Ag        0.000000    0.000000    9.244866
    7.Ag        0.000000    0.000000   -6.656860
    8.Ag        0.000000    0.000000   -9.244866
 <Aug14-2020> <21:45:35>  >>>> CORORT
 <Aug14-2020> <21:45:35>  >>>> CLSMAT
 <Aug14-2020> <21:45:35>  >>>> ORTHON
 <Aug14-2020> <21:45:35>  >>>> GENPT
 <Aug14-2020> <21:45:35>  Acc.Num.Int.=   4.000
 <Aug14-2020> <21:45:35>  Block Length= 124
 <Aug14-2020> <21:45:35>  >>>> PTBAS
 <Aug14-2020> <21:45:35>  >>>> CYCLE
 <Aug14-2020> <21:45:36>              |Error|         MaxErr       Wt(A-DIIS)
 <Aug14-2020> <21:45:36>      1      0.51226435      0.12077593
 <Aug14-2020> <21:45:36>      2      0.01982985      0.00270691    100.0
 <Aug14-2020> <21:45:37>      3      0.00905537      0.00151661    100.0
 <Aug14-2020> <21:45:37>      4      0.01737253      0.00316654    100.0
 <Aug14-2020> <21:45:37>      5      0.00541878      0.00102063      0.0
 <Aug14-2020> <21:45:37>      6      0.00529020      0.00095329      0.0
 <Aug14-2020> <21:45:38>      7      0.00083074      0.00010858      0.0
 <Aug14-2020> <21:45:38>      8      0.00024854      0.00003255      0.0
 <Aug14-2020> <21:45:38>      9      0.00009836      0.00001533      0.0
 <Aug14-2020> <21:45:39>     10      0.00002034      0.00000375      0.0
 <Aug14-2020> <21:45:39>  SCF converged
 <Aug14-2020> <21:45:39>     11      0.00001614      0.00000347      0.0
 <Aug14-2020> <21:45:39>  >>>> TOTEN
 <Aug14-2020> <21:45:39>  >>>> POPAN
 <Aug14-2020> <21:45:39>  >>>> DEBYE
 <Aug14-2020> <21:45:40>  >>>> ENGRAD
 <Aug14-2020> <21:45:40>  current energy                               -0.38492267 Hartree
 <Aug14-2020> <21:45:40>  energy change                      -0.00093580     0.00100000    T
 <Aug14-2020> <21:45:40>  constrained gradient max            0.00337448     0.00100000    F
 <Aug14-2020> <21:45:40>  constrained gradient rms            0.00120412     0.00066667    F
 <Aug14-2020> <21:45:40>  gradient max                        0.00337448
 <Aug14-2020> <21:45:40>  gradient rms                        0.00120412
 <Aug14-2020> <21:45:40>  cart. step max                      0.02259119     0.01000000    F
 <Aug14-2020> <21:45:40>  cart. step rms                      0.00726639     0.00666667    F
  Coordinates in Geometry Cycle 4
    Atom         X           Y           Z   (Angstrom)
    1.Ag        0.000000    0.000000   -1.339515
    2.Ag        0.000000    0.000000    1.339515
    3.Ag        0.000000    0.000000    3.976264
    4.Ag        0.000000    0.000000    6.664330
    5.Ag        0.000000    0.000000   -3.976264
    6.Ag        0.000000    0.000000    9.267457
    7.Ag        0.000000    0.000000   -6.664330
    8.Ag        0.000000    0.000000   -9.267457
 <Aug14-2020> <21:45:40>  >>>> CORORT
 <Aug14-2020> <21:45:40>  >>>> CLSMAT
 <Aug14-2020> <21:45:40>  >>>> ORTHON
 <Aug14-2020> <21:45:40>  >>>> GENPT
 <Aug14-2020> <21:45:40>  Acc.Num.Int.=   4.000
 <Aug14-2020> <21:45:40>  Block Length= 123
 <Aug14-2020> <21:45:40>  >>>> PTBAS
 <Aug14-2020> <21:45:40>  >>>> CYCLE
 <Aug14-2020> <21:45:41>              |Error|         MaxErr       Wt(A-DIIS)
 <Aug14-2020> <21:45:41>      1      0.10081246      0.02449345
 <Aug14-2020> <21:45:41>      2      0.00334965      0.00046010    100.0
 <Aug14-2020> <21:45:42>      3      0.01103119      0.00188583    100.0
 <Aug14-2020> <21:45:42>      4      0.00392412      0.00057490      0.0
 <Aug14-2020> <21:45:42>      5      0.00108011      0.00018986      0.0
 <Aug14-2020> <21:45:42>      6      0.00081408      0.00014961      0.0
 <Aug14-2020> <21:45:43>      7      0.00011808      0.00001250      0.0
 <Aug14-2020> <21:45:43>      8      0.00005458      0.00000785      0.0
 <Aug14-2020> <21:45:43>  SCF converged
 <Aug14-2020> <21:45:43>      9      0.00001480      0.00000232      0.0
 <Aug14-2020> <21:45:44>  >>>> TOTEN
 <Aug14-2020> <21:45:44>  >>>> POPAN
 <Aug14-2020> <21:45:44>  >>>> DEBYE
 <Aug14-2020> <21:45:44>  >>>> ENGRAD
 <Aug14-2020> <21:45:45>  current energy                               -0.38504815 Hartree
 <Aug14-2020> <21:45:45>  energy change                      -0.00012547     0.00100000    T
 <Aug14-2020> <21:45:45>  constrained gradient max            0.00143266     0.00100000    F
 <Aug14-2020> <21:45:45>  constrained gradient rms            0.00057715     0.00066667    T
 <Aug14-2020> <21:45:45>  gradient max                        0.00143266
 <Aug14-2020> <21:45:45>  gradient rms                        0.00057715
 <Aug14-2020> <21:45:45>  cart. step max                      0.00070573     0.01000000    T
 <Aug14-2020> <21:45:45>  cart. step rms                      0.00028150     0.00666667    T
  Coordinates in Geometry Cycle 5
    Atom         X           Y           Z   (Angstrom)
    1.Ag        0.000000    0.000000   -1.339709
    2.Ag        0.000000    0.000000    1.339709
    3.Ag        0.000000    0.000000    3.975620
    4.Ag        0.000000    0.000000    6.664348
    5.Ag        0.000000    0.000000   -3.975620
    6.Ag        0.000000    0.000000    9.266752
    7.Ag        0.000000    0.000000   -6.664348
    8.Ag        0.000000    0.000000   -9.266752
 <Aug14-2020> <21:45:45>  >>>> CORORT
 <Aug14-2020> <21:45:45>  >>>> CLSMAT
 <Aug14-2020> <21:45:45>  >>>> ORTHON
 <Aug14-2020> <21:45:45>  >>>> GENPT
 <Aug14-2020> <21:45:45>  Acc.Num.Int.=   4.000
 <Aug14-2020> <21:45:45>  Block Length= 124
 <Aug14-2020> <21:45:45>  >>>> PTBAS
 <Aug14-2020> <21:45:45>  >>>> CYCLE
 <Aug14-2020> <21:45:45>              |Error|         MaxErr       Wt(A-DIIS)
 <Aug14-2020> <21:45:45>      1      0.00705304      0.00129250
 <Aug14-2020> <21:45:46>      2      0.00025699      0.00003990    100.0
 <Aug14-2020> <21:45:46>      3      0.00013212      0.00001797    100.0
 <Aug14-2020> <21:45:46>      4      0.00029420      0.00004753      0.0
 <Aug14-2020> <21:45:47>      5      0.00006641      0.00001162      0.0
 <Aug14-2020> <21:45:47>      6      0.00004451      0.00000782      0.0
 <Aug14-2020> <21:45:47>  SCF converged
 <Aug14-2020> <21:45:47>      7      0.00001090      0.00000138      0.0
 <Aug14-2020> <21:45:47>  >>>> TOTEN
 <Aug14-2020> <21:45:48>  >>>> POPAN
 <Aug14-2020> <21:45:48>  >>>> DEBYE
 <Aug14-2020> <21:45:48>  >>>> ENGRAD
 <Aug14-2020> <21:45:48>  current energy                               -0.38503156 Hartree
 <Aug14-2020> <21:45:48>  energy change                       0.00001658     0.00100000    T
 <Aug14-2020> <21:45:48>  constrained gradient max            0.00109546     0.00100000    F
 <Aug14-2020> <21:45:48>  constrained gradient rms            0.00043726     0.00066667    T
 <Aug14-2020> <21:45:48>  gradient max                        0.00109546
 <Aug14-2020> <21:45:48>  gradient rms                        0.00043726
 <Aug14-2020> <21:45:48>  cart. step max                      0.00163148     0.01000000    T
 <Aug14-2020> <21:45:48>  cart. step rms                      0.00071526     0.00666667    T
  Coordinates in Geometry Cycle 6
    Atom         X           Y           Z   (Angstrom)
    1.Ag        0.000000    0.000000   -1.340550
    2.Ag        0.000000    0.000000    1.340550
    3.Ag        0.000000    0.000000    3.974757
    4.Ag        0.000000    0.000000    6.665980
    5.Ag        0.000000    0.000000   -3.974757
    6.Ag        0.000000    0.000000    9.268175
    7.Ag        0.000000    0.000000   -6.665980
    8.Ag        0.000000    0.000000   -9.268175
 <Aug14-2020> <21:45:48>  >>>> CORORT
 <Aug14-2020> <21:45:48>  >>>> CLSMAT
 <Aug14-2020> <21:45:48>  >>>> ORTHON
 <Aug14-2020> <21:45:48>  >>>> GENPT
 <Aug14-2020> <21:45:48>  Acc.Num.Int.=   4.000
 <Aug14-2020> <21:45:48>  Block Length= 124
 <Aug14-2020> <21:45:49>  >>>> PTBAS
 <Aug14-2020> <21:45:49>  >>>> CYCLE
 <Aug14-2020> <21:45:49>              |Error|         MaxErr       Wt(A-DIIS)
 <Aug14-2020> <21:45:49>      1      0.01530611      0.00317749
 <Aug14-2020> <21:45:49>      2      0.00059955      0.00013431    100.0
 <Aug14-2020> <21:45:50>      3      0.00188578      0.00031719    100.0
 <Aug14-2020> <21:45:50>      4      0.00056315      0.00013519      0.0
 <Aug14-2020> <21:45:50>      5      0.00010667      0.00001690      0.0
 <Aug14-2020> <21:45:51>      6      0.00005168      0.00000880      0.0
 <Aug14-2020> <21:45:51>  SCF converged
 <Aug14-2020> <21:45:51>      7      0.00002475      0.00000494      0.0
 <Aug14-2020> <21:45:51>  >>>> TOTEN
 <Aug14-2020> <21:45:51>  >>>> POPAN
 <Aug14-2020> <21:45:51>  >>>> DEBYE
 <Aug14-2020> <21:45:52>  >>>> ENGRAD
 <Aug14-2020> <21:45:52>  current energy                               -0.38503522 Hartree
 <Aug14-2020> <21:45:52>  energy change                      -0.00000366     0.00100000    T
 <Aug14-2020> <21:45:52>  constrained gradient max            0.00040279     0.00100000    T
 <Aug14-2020> <21:45:52>  constrained gradient rms            0.00017102     0.00066667    T
 <Aug14-2020> <21:45:52>  gradient max                        0.00040279
 <Aug14-2020> <21:45:52>  gradient rms                        0.00017102
 <Aug14-2020> <21:45:52>  cart. step max                      0.00280296     0.01000000    T
 <Aug14-2020> <21:45:52>  cart. step rms                      0.00101846     0.00666667    T
 <Aug14-2020> <21:45:52>  GEOMETRY CONVERGED
 <Aug14-2020> <21:45:52>  Calculating Energy Terms for Final Geometry
  Coordinates in Geometry Cycle 6
    Atom         X           Y           Z   (Angstrom)
    1.Ag        0.000000    0.000000   -1.340550
    2.Ag        0.000000    0.000000    1.340550
    3.Ag        0.000000    0.000000    3.974757
    4.Ag        0.000000    0.000000    6.665980
    5.Ag        0.000000    0.000000   -3.974757
    6.Ag        0.000000    0.000000    9.268175
    7.Ag        0.000000    0.000000   -6.665980
    8.Ag        0.000000    0.000000   -9.268175
 <Aug14-2020> <21:45:52>  >>>> CORORT
 <Aug14-2020> <21:45:52>  >>>> CLSMAT
 <Aug14-2020> <21:45:52>  >>>> ORTHON
 <Aug14-2020> <21:45:52>  >>>> GENPT
 <Aug14-2020> <21:45:52>  Acc.Num.Int.=   4.000
 <Aug14-2020> <21:45:52>  Block Length= 124
 <Aug14-2020> <21:45:52>  >>>> PTBAS
 <Aug14-2020> <21:45:52>  >>>> CYCLE
 <Aug14-2020> <21:45:53>              |Error|         MaxErr       Wt(A-DIIS)
 <Aug14-2020> <21:45:53>      1      0.00000802      0.00000133
 <Aug14-2020> <21:45:53>      2      0.00002462      0.00000560    100.0
 <Aug14-2020> <21:45:53>  SCF converged
 <Aug14-2020> <21:45:53>      3      0.00000588      0.00000085    100.0
 <Aug14-2020> <21:45:54>  >>>> TOTEN
 <Aug14-2020> <21:45:54>  >>>> POPAN
 <Aug14-2020> <21:45:54>  >>>> DEBYE
 <Aug14-2020> <21:45:55>  >>>> AMETS
 <Aug14-2020> <21:45:55>  >>>> POPUL
 <Aug14-2020> <21:45:55>   Bond Energy          -0.38503523 a.u.
 <Aug14-2020> <21:45:55>   Bond Energy         -10.47734165 eV
 <Aug14-2020> <21:45:55>   Bond Energy        -241.61       kcal/mol
 <Aug14-2020> <21:45:55>  NORMAL TERMINATION with warnings
 <Aug14-2020> <21:45:55>  END
 <Aug14-2020> <22:01:54>  DIRAC 2018  RunTime: Aug14-2020 22:01:54  Nodes: 1  Procs: 1
 <Aug14-2020> <22:01:54>  NORMAL TERMINATION
 <Aug14-2020> <22:01:54>  END
 <Aug14-2020> <22:01:55>  ADF 2018  RunTime: Aug14-2020 22:01:55  Nodes: 1  Procs: 1
 <Aug14-2020> <22:01:55>  Silver (DZ, all electron)
 <Aug14-2020> <22:01:55>  RunType   : CREATE
 <Aug14-2020> <22:01:55>  Net Charge: 0 (Nuclei minus Electrons)
 <Aug14-2020> <22:01:55>  Symmetry  : ATOM
  Coordinates
    Atom         X           Y           Z   (Angstrom)
    1.Ag        0.000000    0.000000    0.000000
 <Aug14-2020> <22:01:55>  >>>> CORORT
 <Aug14-2020> <22:01:55>  >>>> CLSMAT
 <Aug14-2020> <22:01:55>  >>>> ORTHON
 <Aug14-2020> <22:01:55>  >>>> GENPT
 <Aug14-2020> <22:01:55>  Block Length=  90
 <Aug14-2020> <22:01:55>  >>>> PTBAS
 <Aug14-2020> <22:01:55>  >>>> CYCLE
 <Aug14-2020> <22:01:56>              |Error|         MaxErr       Wt(A-DIIS)
 <Aug14-2020> <22:01:56>      1      0.00000000      0.00000000
 <Aug14-2020> <22:01:56>      2    262.47705830     54.42466343    100.0
 <Aug14-2020> <22:01:56>      3    106.74749413     29.86783379    100.0
 <Aug14-2020> <22:01:56>      4     16.01081672      2.89289253    100.0
 <Aug14-2020> <22:01:56>      5     17.97394031      4.54914235    100.0
 <Aug14-2020> <22:01:56>      6      3.05643144      0.70739000    100.0
 <Aug14-2020> <22:01:56>      7      3.63239415      0.98831964    100.0
 <Aug14-2020> <22:01:56>      8      0.62032265      0.13428440    100.0
 <Aug14-2020> <22:01:56>      9      0.70874948      0.20452446    100.0
 <Aug14-2020> <22:01:56>     10      0.16905044      0.03553401     34.9
 <Aug14-2020> <22:01:56>     11      0.06522372      0.01869104     17.9
 <Aug14-2020> <22:01:56>     12      0.00505096      0.00169775      0.7
 <Aug14-2020> <22:01:56>     13      0.00006639      0.00002131      0.0
 <Aug14-2020> <22:01:56>     14      0.00000012      0.00000004      0.0
 <Aug14-2020> <22:01:56>     15      0.00000000      0.00000000      0.0
 <Aug14-2020> <22:01:56>  SCF converged
 <Aug14-2020> <22:01:57>     16      0.00000000      0.00000000      0.0
 <Aug14-2020> <22:01:57>  >>>> POPAN
 <Aug14-2020> <22:01:57>  >>>> DEBYE
 <Aug14-2020> <22:01:57>  NORMAL TERMINATION
 <Aug14-2020> <22:01:57>  END
 <Aug14-2020> <22:01:57>  WARNING: Input file parsing (see output).
 <Aug14-2020> <22:01:57>  ADF 2018  RunTime: Aug14-2020 22:01:57  Nodes: 1  Procs: 1
 <Aug14-2020> <22:01:57>  Ag34 pentagonal cluster d2h excitation
 <Aug14-2020> <22:01:57>  RunType   : SINGLE POINT
 <Aug14-2020> <22:01:57>  Symmetry has automatically been lowered for
 <Aug14-2020> <22:01:57>    EXCITATION or RESPONSE calculation
 <Aug14-2020> <22:01:57>  Net Charge: 0 (Nuclei minus Electrons)
 <Aug14-2020> <22:01:57>  Symmetry  : D(7D)
 <Aug14-2020> <22:01:57>  >>>> FRAGM
  Coordinates
    Atom         X           Y           Z   (Angstrom)
    1.Ag        0.000000    0.000000   -1.340550
    2.Ag        0.000000    0.000000    1.340550
    3.Ag        0.000000    0.000000    3.974757
    4.Ag        0.000000    0.000000    6.665980
    5.Ag        0.000000    0.000000   -3.974757
    6.Ag        0.000000    0.000000    9.268175
    7.Ag        0.000000    0.000000   -6.665980
    8.Ag        0.000000    0.000000   -9.268175
 <Aug14-2020> <22:01:57>  >>>> CORORT
 <Aug14-2020> <22:01:57>  >>>> CLSMAT
 <Aug14-2020> <22:01:58>  >>>> ORTHON
 <Aug14-2020> <22:01:58>  >>>> GENPT
 <Aug14-2020> <22:01:58>  Acc.Num.Int.=   6.000
 <Aug14-2020> <22:01:58>  Block Length= 123
 <Aug14-2020> <22:01:58>  >>>> PTBAS
 <Aug14-2020> <22:01:58>  >>>> CYCLE
 <Aug14-2020> <22:01:59>              |Error|         MaxErr       Wt(A-DIIS)
 <Aug14-2020> <22:01:59>      1      5.11808669      0.88576701
 <Aug14-2020> <22:01:59>      2      8.58704110      1.94184945    100.0
 <Aug14-2020> <22:02:00>      3      6.84407402      1.55119360    100.0
 <Aug14-2020> <22:02:00>      4      0.38304472      0.03071836     30.0
 <Aug14-2020> <22:02:01>      5      0.52861187      0.12013802    100.0
 <Aug14-2020> <22:02:02>      6      0.35204024      0.06145612     61.1
 <Aug14-2020> <22:02:02>      7      0.12032039      0.02788163     27.2
 <Aug14-2020> <22:02:03>      8      0.11168852      0.02883158     27.2
 <Aug14-2020> <22:02:04>      9      0.03785249      0.00982252      8.9
 <Aug14-2020> <22:02:04>     10      0.01058122      0.00301009      2.0
 <Aug14-2020> <22:02:05>     11      0.00316388      0.00114924      0.2
 <Aug14-2020> <22:02:05>     12      0.00037102      0.00006676      0.0
 <Aug14-2020> <22:02:06>     13      0.00013562      0.00003662      0.0
 <Aug14-2020> <22:02:07>     14      0.00005375      0.00001477      0.0
 <Aug14-2020> <22:02:07>     15      0.00000479      0.00000152      0.0
 <Aug14-2020> <22:02:08>     16      0.00000290      0.00000112      0.0
 <Aug14-2020> <22:02:09>     17      0.00000055      0.00000018      0.0
 <Aug14-2020> <22:02:09>     18      0.00000006      0.00000001      0.0
 <Aug14-2020> <22:02:09>  SCF converged
 <Aug14-2020> <22:02:10>     19      0.00000005      0.00000001      0.0
 <Aug14-2020> <22:02:10>  >>>> TOTEN
 <Aug14-2020> <22:02:11>  >>>> POPAN
 <Aug14-2020> <22:02:11>  >>>> DEBYE
 <Aug14-2020> <22:02:11>  >>>> AMETS
 <Aug14-2020> <22:02:11>   Bond Energy          -0.23412078 a.u.
 <Aug14-2020> <22:02:11>   Bond Energy          -6.37075065 eV
 <Aug14-2020> <22:02:11>   Bond Energy        -146.91       kcal/mol
 <Aug14-2020> <22:02:11>  >>>> POPUL
 <Aug14-2020> <22:02:11>  >>>> EXCITATIONS
 <Aug14-2020> <22:02:12>    SS   S+.u
 <Aug14-2020> <22:07:27>      Cycle:   2, MaxErr:  0.8547424
 <Aug14-2020> <22:07:44>      Cycle:   3, MaxErr:  0.1163792
 <Aug14-2020> <22:08:02>      Cycle:   4, MaxErr:  0.0046899
 <Aug14-2020> <22:08:20>      Cycle:   5, MaxErr:  0.0011049
 <Aug14-2020> <22:08:37>      Cycle:   6, MaxErr:  0.0000351
 <Aug14-2020> <22:08:54>      Cycle:   7, MaxErr:  0.0000288
 <Aug14-2020> <22:09:12>      Cycle:   8, MaxErr:  0.0000049
 <Aug14-2020> <22:09:30>      Cycle:   9, MaxErr:  0.0000079
 <Aug14-2020> <22:09:47>      Cycle:  10, MaxErr:  0.0000044
 <Aug14-2020> <22:10:05>      Cycle:  11, MaxErr:  0.0000035
 <Aug14-2020> <22:10:23>      Cycle:  12, MaxErr:  0.0000062
 <Aug14-2020> <22:10:40>      Cycle:  13, MaxErr:  0.0000095
 <Aug14-2020> <22:10:57>      Cycle:  14, MaxErr:  0.0000135
 <Aug14-2020> <22:11:15>      Cycle:  15, MaxErr:  0.0000110
 <Aug14-2020> <22:11:33>      Cycle:  16, MaxErr:  0.0000047
 <Aug14-2020> <22:11:51>      Cycle:  17, MaxErr:  0.0000010
 <Aug14-2020> <22:11:51>  Converged.
 <Aug14-2020> <22:15:54>    SS   Pi.u
 <Aug14-2020> <22:26:33>      Cycle:   2, MaxErr:  0.0088073
 <Aug14-2020> <22:27:03>      Cycle:   3, MaxErr:  0.0026163
 <Aug14-2020> <22:27:34>      Cycle:   4, MaxErr:  0.0000282
 <Aug14-2020> <22:28:06>      Cycle:   5, MaxErr:  0.0000023
 <Aug14-2020> <22:28:38>      Cycle:   6, MaxErr:  0.0000007
 <Aug14-2020> <22:28:38>  Converged.
 <Aug14-2020> <22:33:01>  NORMAL TERMINATION with warnings
 <Aug14-2020> <22:33:01>  END
NORMAL TERMINATION with warnings
----- End of ADF execution -----
